<?xml version="1.0" encoding="ISO-8859-1"?>
<modeling>
 <generator>
  <i name="program" type="string">vasp </i>
  <i name="version" type="string">5.4.4.18Apr17-6-g9f103f2a35  </i>
  <i name="subversion" type="string">(build Dec 13 2020 03:13:36) complex            parallel </i>
  <i name="platform" type="string">LinuxIFC </i>
  <i name="date" type="string">2021 01 30 </i>
  <i name="time" type="string">16:40:15 </i>
 </generator>
 <incar>
  <i type="int" name="ISTART">     0</i>
  <i type="string" name="PREC">accurate</i>
  <i type="string" name="ALGO"> NORMAL</i>
  <i type="int" name="ISPIN">     2</i>
  <i type="int" name="NELM">   100</i>
  <i type="int" name="NELMDL">   -10</i>
  <i type="int" name="IBRION">     2</i>
  <i type="int" name="NFREE">    10</i>
  <i name="EDIFF">      0.00000010</i>
  <i name="EDIFFG">     -0.01000000</i>
  <i type="int" name="NSW">   200</i>
  <i type="int" name="ISIF">     2</i>
  <i type="int" name="ISYM">     2</i>
  <i name="ENCUT">    500.00000000</i>
  <i name="POTIM">      0.12500000</i>
  <i type="string" name="LREAL"> AUTO</i>
  <v name="ROPT">     -0.00020000     -0.00020000     -0.00020000****************</v>
  <i type="logical" name="LPLANE"> T  </i>
  <i type="int" name="ISMEAR">     0</i>
  <i name="SIGMA">      0.05000000</i>
  <i type="int" name="NWRITE">     1</i>
  <i type="logical" name="LWAVE"> F  </i>
  <i type="logical" name="LCHARG"> F  </i>
  <i type="logical" name="LVTOT"> F  </i>
  <v type="int" name="KPOINT_BSE">    -1     0     0     0</v>
  <i type="int" name="NELM">   100</i>
  <i type="string" name="GGA"> MK</i>
  <i type="int" name="VOSKOWN">     1</i>
  <i name="PARAM1">      0.12340000</i>
  <i name="PARAM2">      1.00000000</i>
  <i type="logical" name="LUSE_VDW"> T  </i>
  <i name="AGGAC">      0.00000000</i>
  <i type="logical" name="LDIPOL"> T  </i>
  <i type="int" name="IDIPOL">     3</i>
 </incar>
 <structure name="primitive_cell" >
  <crystal>
   <varray name="basis" >
    <v>      15.62500000       0.00000000       0.00000000 </v>
    <v>      -7.81250000      13.53164693       0.00000000 </v>
    <v>       0.00000000       0.00000000      20.00000000 </v>
   </varray>
   <i name="volume">   4228.63966688 </i>
   <varray name="rec_basis" >
    <v>       0.06400000       0.03695042       0.00000000 </v>
    <v>       0.00000000       0.07390083       0.00000000 </v>
    <v>       0.00000000       0.00000000       0.05000000 </v>
   </varray>
  </crystal>
  <varray name="positions" >
   <v>       0.06652681       0.13292430       0.18579542 </v>
   <v>       0.12697104       0.26348551       0.26450468 </v>
   <v>       0.13331754       0.06663507       0.10686675 </v>
   <v>      -0.06668733       0.06666781       0.10687620 </v>
   <v>       0.13336490       0.06672979       0.26504580 </v>
   <v>       0.13347395       0.26673697       0.10702557 </v>
   <v>      -0.06667585       0.06666945       0.26511898 </v>
   <v>       0.06665444      -0.06669112       0.18602592 </v>
   <v>      -0.13332478      -0.06663699       0.18599259 </v>
   <v>       0.26639749       0.13292430       0.18579542 </v>
   <v>      -0.13332122       0.13333938       0.18599725 </v>
   <v>       0.26666666       0.33333332       0.18351419 </v>
   <v>       0.06652681       0.33360249       0.18579542 </v>
   <v>      -0.06664619      -0.13331157       0.10688352 </v>
   <v>      -0.06667567      -0.13333952       0.26508118 </v>
   <v>       0.33326303       0.26673697       0.10702557 </v>
   <v>      -0.06668733       0.26664484       0.10687620 </v>
   <v>      -0.06667585       0.26665468       0.26511898 </v>
   <v>       0.33651448       0.26348551       0.26450468 </v>
   <v>       0.26666666       0.33333332       0.32834836 </v>
   <v>       0.13333463      -0.13331157       0.10688352 </v>
   <v>      -0.26666733      -0.13333267       0.10689327 </v>
   <v>       0.13333616      -0.13333952       0.26508118 </v>
   <v>       0.33335515       0.06666781       0.10687620 </v>
   <v>      -0.26666714      -0.13333286       0.26508460 </v>
   <v>      -0.26666264       0.06666867       0.10688758 </v>
   <v>       0.33334531       0.06666945       0.26511898 </v>
   <v>       0.33326303       0.46652605       0.10702557 </v>
   <v>      -0.26666680       0.06666659       0.26508746 </v>
   <v>       0.13331754       0.46668245       0.10686675 </v>
   <v>       0.13336490       0.46663510       0.26504580 </v>
   <v>       0.33651448       0.47302895       0.26450468 </v>
   <v>      -0.13333012      -0.26666990       0.18599791 </v>
   <v>       0.26668779      -0.06663699       0.18599259 </v>
   <v>      -0.33333445      -0.06666557       0.18598801 </v>
   <v>      -0.13332478       0.33331219       0.18599259 </v>
   <v>       0.26639749      -0.46652683       0.18579542 </v>
   <v>       0.46707568       0.33360249       0.18579542 </v>
   <v>       0.06666021      -0.26666990       0.18599791 </v>
   <v>      -0.33336304      -0.26667524       0.18599259 </v>
   <v>       0.46666060       0.13333938       0.18599725 </v>
   <v>      -0.33333445       0.13333110       0.18598801 </v>
   <v>       0.06665444      -0.46665446       0.18602592 </v>
   <v>       0.46707568      -0.46652683       0.18579542 </v>
   <v>      -0.06666666      -0.33333334       0.10688857 </v>
   <v>      -0.26668843      -0.33335381       0.10688352 </v>
   <v>      -0.06666666      -0.33333334       0.26508296 </v>
   <v>      -0.26666048      -0.33332433       0.26508118 </v>
   <v>      -0.46666781       0.26664484       0.10687620 </v>
   <v>      -0.26666733       0.26666533       0.10689327 </v>
   <v>      -0.46666946       0.26665468       0.26511898 </v>
   <v>      -0.46663507       0.46668245       0.10686675 </v>
   <v>      -0.46672979       0.46663510       0.26504580 </v>
   <v>      -0.06664619       0.46666537       0.10688352 </v>
   <v>      -0.26666714       0.26666570       0.26508460 </v>
   <v>      -0.06667567       0.46666384       0.26508118 </v>
   <v>       0.33333467      -0.13333267       0.10689327 </v>
   <v>       0.33333430      -0.13333286       0.26508460 </v>
   <v>      -0.46666867      -0.13333736       0.10688758 </v>
   <v>      -0.46666660      -0.13333321       0.26508746 </v>
   <v>       0.33335515      -0.33331268       0.10687620 </v>
   <v>       0.33334531      -0.33332416       0.26511898 </v>
   <v>       0.13333463      -0.33335381       0.10688352 </v>
   <v>      -0.46666781      -0.33331268       0.10687620 </v>
   <v>       0.13333616      -0.33332433       0.26508118 </v>
   <v>      -0.46666946      -0.33332416       0.26511898 </v>
   <v>      -0.46666867       0.06666867       0.10688758 </v>
   <v>      -0.46666660       0.06666659       0.26508746 </v>
   <v>      -0.13333012      -0.46666023       0.18599791 </v>
   <v>      -0.33330890      -0.46665446       0.18602592 </v>
   <v>       0.26668779      -0.26667524       0.18599259 </v>
   <v>       0.46666060      -0.26667880       0.18599725 </v>
   <v>       0.46666888      -0.06666557       0.18598801 </v>
   <v>      -0.33336304       0.33331219       0.18599259 </v>
   <v>      -0.26668843       0.46666537       0.10688352 </v>
   <v>      -0.26666048       0.46666384       0.26508118 </v>
  </varray>
 </structure>
 <varray name="primitive_index" >
  <v type="int" >        1 </v>
  <v type="int" >       56 </v>
  <v type="int" >       26 </v>
  <v type="int" >       30 </v>
  <v type="int" >       51 </v>
  <v type="int" >       31 </v>
  <v type="int" >       55 </v>
  <v type="int" >       21 </v>
  <v type="int" >       25 </v>
  <v type="int" >        2 </v>
  <v type="int" >        5 </v>
  <v type="int" >        7 </v>
  <v type="int" >        6 </v>
  <v type="int" >       50 </v>
  <v type="int" >       75 </v>
  <v type="int" >       32 </v>
  <v type="int" >       35 </v>
  <v type="int" >       60 </v>
  <v type="int" >       57 </v>
  <v type="int" >       76 </v>
  <v type="int" >       46 </v>
  <v type="int" >       49 </v>
  <v type="int" >       71 </v>
  <v type="int" >       27 </v>
  <v type="int" >       74 </v>
  <v type="int" >       29 </v>
  <v type="int" >       52 </v>
  <v type="int" >       37 </v>
  <v type="int" >       54 </v>
  <v type="int" >       36 </v>
  <v type="int" >       61 </v>
  <v type="int" >       62 </v>
  <v type="int" >       20 </v>
  <v type="int" >       22 </v>
  <v type="int" >       24 </v>
  <v type="int" >       10 </v>
  <v type="int" >       12 </v>
  <v type="int" >        8 </v>
  <v type="int" >       16 </v>
  <v type="int" >       19 </v>
  <v type="int" >        3 </v>
  <v type="int" >        4 </v>
  <v type="int" >       11 </v>
  <v type="int" >       13 </v>
  <v type="int" >       45 </v>
  <v type="int" >       44 </v>
  <v type="int" >       70 </v>
  <v type="int" >       69 </v>
  <v type="int" >       33 </v>
  <v type="int" >       34 </v>
  <v type="int" >       58 </v>
  <v type="int" >       38 </v>
  <v type="int" >       63 </v>
  <v type="int" >       40 </v>
  <v type="int" >       59 </v>
  <v type="int" >       65 </v>
  <v type="int" >       47 </v>
  <v type="int" >       72 </v>
  <v type="int" >       48 </v>
  <v type="int" >       73 </v>
  <v type="int" >       42 </v>
  <v type="int" >       67 </v>
  <v type="int" >       41 </v>
  <v type="int" >       43 </v>
  <v type="int" >       66 </v>
  <v type="int" >       68 </v>
  <v type="int" >       28 </v>
  <v type="int" >       53 </v>
  <v type="int" >       15 </v>
  <v type="int" >       14 </v>
  <v type="int" >       17 </v>
  <v type="int" >       18 </v>
  <v type="int" >       23 </v>
  <v type="int" >        9 </v>
  <v type="int" >       39 </v>
  <v type="int" >       64 </v>
 </varray>
 <kpoints>
  <generation param="Monkhorst-Pack">
   <v type="int" name="divisions">       3        3        1 </v>
   <v name="usershift">      0.00000000       0.00000000       0.00000000 </v>
   <v name="genvec1">      0.33333333       0.00000000       0.00000000 </v>
   <v name="genvec2">      0.00000000       0.33333333       0.00000000 </v>
   <v name="genvec3">      0.00000000       0.00000000       1.00000000 </v>
   <v name="shift">      0.00000000       0.00000000       0.00000000 </v>
  </generation>
  <varray name="kpointlist" >
   <v>       0.00000000       0.00000000       0.00000000 </v>
   <v>       0.33333333      -0.00000000       0.00000000 </v>
   <v>       0.33333333       0.33333333       0.00000000 </v>
  </varray>
  <varray name="weights" >
   <v>       0.11111111 </v>
   <v>       0.66666667 </v>
   <v>       0.22222222 </v>
  </varray>
 </kpoints>
 <parameters>
  <separator name="general" >
   <i type="string" name="SYSTEM">unknown system</i>
   <i type="logical" name="LCOMPAT"> F  </i>
  </separator>
  <separator name="electronic" >
   <i type="string" name="PREC">accura</i>
   <i name="ENMAX">    500.00000000</i>
   <i name="ENAUG">    446.01400000</i>
   <i name="EDIFF">      0.00000010</i>
   <i type="int" name="IALGO">    38</i>
   <i type="int" name="IWAVPR">    11</i>
   <i type="int" name="NBANDS">   440</i>
   <i name="NELECT">    660.00000000</i>
   <i type="int" name="TURBO">     0</i>
   <i type="int" name="IRESTART">     0</i>
   <i type="int" name="NREBOOT">     0</i>
   <i type="int" name="NMIN">     0</i>
   <i name="EREF">      0.00000000</i>
   <separator name="electronic smearing" >
    <i type="int" name="ISMEAR">     0</i>
    <i name="SIGMA">      0.05000000</i>
    <i name="KSPACING">      0.50000000</i>
    <i type="logical" name="KGAMMA"> T  </i>
   </separator>
   <separator name="electronic projectors" >
    <i type="logical" name="LREAL"> T  </i>
    <v name="ROPT">     -0.00020000     -0.00020000     -0.00020000</v>
    <i type="int" name="LMAXPAW">  -100</i>
    <i type="int" name="LMAXMIX">     2</i>
    <i type="logical" name="NLSPLINE"> F  </i>
   </separator>
   <separator name="electronic startup" >
    <i type="int" name="ISTART">     0</i>
    <i type="int" name="ICHARG">     2</i>
    <i type="int" name="INIWAV">     1</i>
   </separator>
   <separator name="electronic spin" >
    <i type="int" name="ISPIN">     2</i>
    <i type="logical" name="LNONCOLLINEAR"> F  </i>
    <v name="MAGMOM">      1.00000000      1.00000000      1.00000000      1.00000000      1.00000000      1.00000000      1.00000000      1.00000000      1.00000000      1.00000000      1.00000000      1.00000000      1.00000000      1.00000000      1.00000000      1.00000000      1.00000000      1.00000000      1.00000000      1.00000000
      1.00000000      1.00000000      1.00000000      1.00000000      1.00000000      1.00000000      1.00000000      1.00000000      1.00000000      1.00000000      1.00000000      1.00000000      1.00000000      1.00000000      1.00000000      1.00000000      1.00000000      1.00000000      1.00000000      1.00000000
      1.00000000      1.00000000      1.00000000      1.00000000      1.00000000      1.00000000      1.00000000      1.00000000      1.00000000      1.00000000      1.00000000      1.00000000      1.00000000      1.00000000      1.00000000      1.00000000      1.00000000      1.00000000      1.00000000      1.00000000
      1.00000000      1.00000000      1.00000000      1.00000000      1.00000000      1.00000000      1.00000000      1.00000000      1.00000000      1.00000000      1.00000000      1.00000000      1.00000000      1.00000000      1.00000000      1.00000000</v>
    <i name="NUPDOWN">     -1.00000000</i>
    <i type="logical" name="LSORBIT"> F  </i>
    <v name="SAXIS">      0.00000000      0.00000000      1.00000000</v>
    <i type="logical" name="LSPIRAL"> F  </i>
    <v name="QSPIRAL">      0.00000000      0.00000000      0.00000000</v>
    <i type="logical" name="LZEROZ"> F  </i>
   </separator>
   <separator name="electronic exchange-correlation" >
    <i type="logical" name="LASPH"> F  </i>
    <i type="logical" name="LMETAGGA"> F  </i>
   </separator>
   <separator name="electronic convergence" >
    <i type="int" name="NELM">   100</i>
    <i type="int" name="NELMDL">   -10</i>
    <i type="int" name="NELMIN">     2</i>
    <i name="ENINI">    500.00000000</i>
    <separator name="electronic convergence detail" >
     <i type="logical" name="LDIAG"> T  </i>
     <i type="logical" name="LSUBROT"> F  </i>
     <i name="WEIMIN">      0.00100000</i>
     <i name="EBREAK">      0.00000000</i>
     <i name="DEPER">      0.30000000</i>
     <i type="int" name="NRMM">     4</i>
     <i name="TIME">      0.40000000</i>
    </separator>
   </separator>
   <separator name="electronic mixer" >
    <i name="AMIX">      0.40000000</i>
    <i name="BMIX">      1.00000000</i>
    <i name="AMIN">      0.10000000</i>
    <i name="AMIX_MAG">      1.60000000</i>
    <i name="BMIX_MAG">      1.00000000</i>
    <separator name="electronic mixer details" >
     <i type="int" name="IMIX">     4</i>
     <i type="logical" name="MIXFIRST"> F  </i>
     <i type="int" name="MAXMIX">   -45</i>
     <i name="WC">    100.00000000</i>
     <i type="int" name="INIMIX">     1</i>
     <i type="int" name="MIXPRE">     1</i>
     <i type="int" name="MREMOVE">     5</i>
    </separator>
   </separator>
   <separator name="electronic dipolcorrection" >
    <i type="logical" name="LDIPOL"> T  </i>
    <i type="logical" name="LMONO"> F  </i>
    <i type="int" name="IDIPOL">     3</i>
    <i name="EPSILON">      1.00000000</i>
    <v name="DIPOL">   -100.00000000   -100.00000000   -100.00000000</v>
    <i name="EFIELD">      0.00000000</i>
   </separator>
  </separator>
  <separator name="grids" >
   <i type="int" name="NGX">   120</i>
   <i type="int" name="NGY">   120</i>
   <i type="int" name="NGZ">   150</i>
   <i type="int" name="NGXF">   240</i>
   <i type="int" name="NGYF">   240</i>
   <i type="int" name="NGZF">   300</i>
   <i type="logical" name="ADDGRID"> F  </i>
  </separator>
  <separator name="ionic" >
   <i type="int" name="NSW">   200</i>
   <i type="int" name="IBRION">     2</i>
   <i type="int" name="MDALGO">     0</i>
   <i type="int" name="ISIF">     2</i>
   <i name="PSTRESS">      0.00000000</i>
   <i name="EDIFFG">     -0.01000000</i>
   <i type="int" name="NFREE">    10</i>
   <i name="POTIM">      0.12500000</i>
   <i name="SMASS">     -3.00000000</i>
   <i name="SCALEE">      1.00000000</i>
  </separator>
  <separator name="ionic md" >
   <i name="TEBEG">      0.00010000</i>
   <i name="TEEND">      0.00010000</i>
   <i type="int" name="NBLOCK">     1</i>
   <i type="int" name="KBLOCK">   200</i>
   <i type="int" name="NPACO">   256</i>
   <i name="APACO">     16.00000000</i>
  </separator>
  <separator name="symmetry" >
   <i type="int" name="ISYM">     2</i>
   <i name="SYMPREC">      0.00001000</i>
  </separator>
  <separator name="dos" >
   <i type="int" name="LORBIT">     0</i>
   <v name="RWIGS">     -1.00000000     -1.00000000     -1.00000000</v>
   <i type="int" name="NEDOS">   301</i>
   <i name="EMIN">     10.00000000</i>
   <i name="EMAX">    -10.00000000</i>
   <i name="EFERMI">      0.00000000</i>
  </separator>
  <separator name="writing" >
   <i type="int" name="NWRITE">     1</i>
   <i type="logical" name="LWAVE"> F  </i>
   <i type="logical" name="LDOWNSAMPLE"> F  </i>
   <i type="logical" name="LCHARG"> F  </i>
   <i type="logical" name="LPARD"> F  </i>
   <i type="logical" name="LVTOT"> F  </i>
   <i type="logical" name="LVHAR"> F  </i>
   <i type="logical" name="LELF"> F  </i>
   <i type="logical" name="LOPTICS"> F  </i>
   <v name="STM">      0.00000000      0.00000000      0.00000000      0.00000000      0.00000000      0.00000000      0.00000000</v>
  </separator>
  <separator name="performance" >
   <i type="int" name="NPAR">     8</i>
   <i type="int" name="NSIM">     4</i>
   <i type="int" name="NBLK">    -1</i>
   <i type="logical" name="LPLANE"> T  </i>
   <i type="logical" name="LSCALAPACK"> T  </i>
   <i type="logical" name="LSCAAWARE"> F  </i>
   <i type="logical" name="LSCALU"> F  </i>
   <i type="logical" name="LASYNC"> F  </i>
   <i type="logical" name="LORBITALREAL"> F  </i>
  </separator>
  <separator name="miscellaneous" >
   <i type="int" name="IDIOT">     3</i>
   <i type="int" name="ISPECIAL">     0</i>
   <i type="logical" name="LMUSIC"> F  </i>
   <v name="POMASS">     95.94000000     32.06600000    195.08000000</v>
   <v name="DARWINR">      0.00000000      0.00000000      0.00000000</v>
   <v name="DARWINV">      1.00000000      1.00000000      1.00000000</v>
   <i type="logical" name="LCORR"> T  </i>
  </separator>
  <i type="logical" name="GGA_COMPAT"> T  </i>
  <i type="logical" name="LBERRY"> F  </i>
  <i type="int" name="ICORELEVEL">     0</i>
  <i type="logical" name="LDAU"> F  </i>
  <i type="int" name="I_CONSTRAINED_M">     0</i>
  <separator name="electronic exchange-correlation" >
   <i type="string" name="GGA">MK</i>
   <i type="int" name="VOSKOWN">     1</i>
   <i type="logical" name="LHFCALC"> F  </i>
   <i type="string" name="PRECFOCK"></i>
   <i type="logical" name="LSYMGRAD"> F  </i>
   <i type="logical" name="LHFONE"> F  </i>
   <i type="logical" name="LRHFCALC"> F  </i>
   <i type="logical" name="LTHOMAS"> F  </i>
   <i type="logical" name="LMODELHF"> F  </i>
   <i name="ENCUT4O">     -1.00000000</i>
   <i type="int" name="EXXOEP">     0</i>
   <i type="int" name="FOURORBIT">     0</i>
   <i name="AEXX">      0.00000000</i>
   <i name="HFALPHA">      0.00000000</i>
   <i name="MCALPHA">      0.00000000</i>
   <i name="ALDAX">      1.00000000</i>
   <i name="AGGAX">      1.00000000</i>
   <i name="ALDAC">      1.00000000</i>
   <i name="AGGAC">      0.00000000</i>
   <i type="int" name="NKREDX">     1</i>
   <i type="int" name="NKREDY">     1</i>
   <i type="int" name="NKREDZ">     1</i>
   <i type="logical" name="SHIFTRED"> F  </i>
   <i type="logical" name="ODDONLY"> F  </i>
   <i type="logical" name="EVENONLY"> F  </i>
   <i type="int" name="LMAXFOCK">     0</i>
   <i type="int" name="NMAXFOCKAE">     0</i>
   <i type="logical" name="LFOCKAEDFT"> F  </i>
   <i name="HFSCREEN">      0.00000000</i>
   <i name="HFSCREENC">      0.00000000</i>
   <i type="int" name="NBANDSGWLOW">     0</i>
  </separator>
  <separator name="vdW DFT" >
   <i type="logical" name="LUSE_VDW"> T  </i>
   <i name="Zab_VDW">     -0.84910000</i>
   <i name="PARAM1">      0.12340000</i>
   <i name="PARAM2">      1.00000000</i>
   <i name="PARAM3">      0.00000000</i>
  </separator>
  <separator name="model GW" >
   <i type="int" name="MODEL_GW">     0</i>
   <i name="MODEL_EPS0">     33.38399737</i>
   <i name="MODEL_ALPHA">      1.00000000</i>
  </separator>
  <separator name="linear response parameters" >
   <i type="logical" name="LEPSILON"> F  </i>
   <i type="logical" name="LRPA"> F  </i>
   <i type="logical" name="LNABLA"> F  </i>
   <i type="logical" name="LVEL"> F  </i>
   <i type="int" name="KINTER">     0</i>
   <i name="CSHIFT">      0.10000000</i>
   <i name="OMEGAMAX">     -1.00000000</i>
   <i name="DEG_THRESHOLD">      0.00200000</i>
   <i name="RTIME">     -0.10000000</i>
   <i name="WPLASMAI">      0.00000000</i>
   <v name="DFIELD">      0.00000000      0.00000000      0.00000000</v>
   <v name="WPLASMA">      0.00000000      0.00000000      0.00000000      0.00000000      0.00000000      0.00000000      0.00000000      0.00000000      0.00000000</v>
  </separator>
  <separator name="orbital magnetization" >
   <i type="logical" name="NUCIND"> F  </i>
   <v name="MAGPOS">      0.00000000      0.00000000      0.00000000</v>
   <i type="logical" name="LNICSALL"> T  </i>
   <i type="logical" name="ORBITALMAG"> F  </i>
   <i type="logical" name="LMAGBLOCH"> F  </i>
   <i type="logical" name="LCHIMAG"> F  </i>
   <i type="logical" name="LGAUGE"> T  </i>
   <i type="int" name="MAGATOM">     0</i>
   <v name="MAGDIPOL">      0.00000000      0.00000000      0.00000000</v>
   <v name="AVECCONST">      0.00000000      0.00000000      0.00000000</v>
  </separator>
  <separator name="response functions" >
   <i type="logical" name="LADDER"> F  </i>
   <i type="logical" name="LRPAFORCE"> F  </i>
   <i type="logical" name="LFXC"> F  </i>
   <i type="logical" name="LHARTREE"> T  </i>
   <i type="int" name="IBSE">     0</i>
   <v type="int" name="KPOINT">    -1     0     0     0</v>
   <i type="logical" name="LTCTE"> F  </i>
   <i type="logical" name="LTETE"> F  </i>
   <i type="logical" name="LTRIPLET"> F  </i>
   <i type="logical" name="LFXCEPS"> F  </i>
   <i type="logical" name="LFXHEG"> F  </i>
   <i type="int" name="NATURALO">     2</i>
   <i type="logical" name="L2ORDER"> F  </i>
   <i type="logical" name="LMP2LT"> F  </i>
   <i type="logical" name="LUSEW"> F  </i>
   <i name="ENCUTGW">     -2.00000000</i>
   <i name="ENCUTGWSOFT">     -2.00000000</i>
   <i name="ENCUTLF">     -1.00000000</i>
   <i type="int" name="LMAXMP2">    -1</i>
   <i name="SCISSOR">      0.00000000</i>
   <i type="int" name="NOMEGA">     0</i>
   <i type="int" name="NOMEGAR">     0</i>
   <i type="int" name="NBANDSGW">    -1</i>
   <i type="int" name="NBANDSO">    -1</i>
   <i type="int" name="NBANDSV">    -1</i>
   <i type="int" name="NELM">   100</i>
   <i type="int" name="NELMHF">     1</i>
   <i type="int" name="DIM">     3</i>
   <i type="int" name="ANTIRES">     0</i>
   <i name="OMEGAMAX">    -30.00000000</i>
   <i name="OMEGAMIN">    -30.00000000</i>
   <i name="OMEGATL">   -200.00000000</i>
   <i type="int" name="OMEGAGRID">   140</i>
   <i name="CSHIFT">     -0.10000000</i>
   <i type="logical" name="SELFENERGY"> F  </i>
   <i type="logical" name="LSPECTRAL"> F  </i>
   <i type="logical" name="LSPECTRALGW"> F  </i>
   <i type="logical" name="LSINGLES"> F  </i>
   <i type="logical" name="LFERMIGW"> F  </i>
   <i type="logical" name="ODDONLYGW"> F  </i>
   <i type="logical" name="EVENONLYGW"> F  </i>
   <i type="int" name="NKREDLFX">     1</i>
   <i type="int" name="NKREDLFY">     1</i>
   <i type="int" name="NKREDLFZ">     1</i>
   <i type="int" name="MAXMEM">  2800</i>
   <i type="int" name="TELESCOPE">     0</i>
   <i type="int" name="TAUPAR">     1</i>
   <i type="int" name="OMEGAPAR">    -1</i>
   <i name="LAMBDA">      1.00000000</i>
  </separator>
  <separator name="External order field" >
   <i name="OFIELD_KAPPA">      0.00000000</i>
   <v name="OFIELD_K">      0.00000000      0.00000000      0.00000000</v>
   <i name="OFIELD_Q6_NEAR">      0.00000000</i>
   <i name="OFIELD_Q6_FAR">      0.00000000</i>
   <i name="OFIELD_A">      0.00000000</i>
  </separator>
 </parameters>
 <atominfo>
  <atoms>      76 </atoms>
  <types>       3 </types>
  <array name="atoms" >
   <dimension dim="1">ion</dimension>
   <field type="string">element</field>
   <field type="int">atomtype</field>
   <set>
    <rc><c>Mo</c><c>   1</c></rc>
    <rc><c>Mo</c><c>   1</c></rc>
    <rc><c>Mo</c><c>   1</c></rc>
    <rc><c>Mo</c><c>   1</c></rc>
    <rc><c>Mo</c><c>   1</c></rc>
    <rc><c>Mo</c><c>   1</c></rc>
    <rc><c>Mo</c><c>   1</c></rc>
    <rc><c>Mo</c><c>   1</c></rc>
    <rc><c>Mo</c><c>   1</c></rc>
    <rc><c>Mo</c><c>   1</c></rc>
    <rc><c>Mo</c><c>   1</c></rc>
    <rc><c>Mo</c><c>   1</c></rc>
    <rc><c>Mo</c><c>   1</c></rc>
    <rc><c>Mo</c><c>   1</c></rc>
    <rc><c>Mo</c><c>   1</c></rc>
    <rc><c>Mo</c><c>   1</c></rc>
    <rc><c>Mo</c><c>   1</c></rc>
    <rc><c>Mo</c><c>   1</c></rc>
    <rc><c>Mo</c><c>   1</c></rc>
    <rc><c>Mo</c><c>   1</c></rc>
    <rc><c>Mo</c><c>   1</c></rc>
    <rc><c>Mo</c><c>   1</c></rc>
    <rc><c>Mo</c><c>   1</c></rc>
    <rc><c>Mo</c><c>   1</c></rc>
    <rc><c>Mo</c><c>   1</c></rc>
    <rc><c>S </c><c>   2</c></rc>
    <rc><c>S </c><c>   2</c></rc>
    <rc><c>S </c><c>   2</c></rc>
    <rc><c>S </c><c>   2</c></rc>
    <rc><c>S </c><c>   2</c></rc>
    <rc><c>S </c><c>   2</c></rc>
    <rc><c>S </c><c>   2</c></rc>
    <rc><c>S </c><c>   2</c></rc>
    <rc><c>S </c><c>   2</c></rc>
    <rc><c>S </c><c>   2</c></rc>
    <rc><c>S </c><c>   2</c></rc>
    <rc><c>S </c><c>   2</c></rc>
    <rc><c>S </c><c>   2</c></rc>
    <rc><c>S </c><c>   2</c></rc>
    <rc><c>S </c><c>   2</c></rc>
    <rc><c>S </c><c>   2</c></rc>
    <rc><c>S </c><c>   2</c></rc>
    <rc><c>S </c><c>   2</c></rc>
    <rc><c>S </c><c>   2</c></rc>
    <rc><c>S </c><c>   2</c></rc>
    <rc><c>S </c><c>   2</c></rc>
    <rc><c>S </c><c>   2</c></rc>
    <rc><c>S </c><c>   2</c></rc>
    <rc><c>S </c><c>   2</c></rc>
    <rc><c>S </c><c>   2</c></rc>
    <rc><c>S </c><c>   2</c></rc>
    <rc><c>S </c><c>   2</c></rc>
    <rc><c>S </c><c>   2</c></rc>
    <rc><c>S </c><c>   2</c></rc>
    <rc><c>S </c><c>   2</c></rc>
    <rc><c>S </c><c>   2</c></rc>
    <rc><c>S </c><c>   2</c></rc>
    <rc><c>S </c><c>   2</c></rc>
    <rc><c>S </c><c>   2</c></rc>
    <rc><c>S </c><c>   2</c></rc>
    <rc><c>S </c><c>   2</c></rc>
    <rc><c>S </c><c>   2</c></rc>
    <rc><c>S </c><c>   2</c></rc>
    <rc><c>S </c><c>   2</c></rc>
    <rc><c>S </c><c>   2</c></rc>
    <rc><c>S </c><c>   2</c></rc>
    <rc><c>S </c><c>   2</c></rc>
    <rc><c>S </c><c>   2</c></rc>
    <rc><c>S </c><c>   2</c></rc>
    <rc><c>S </c><c>   2</c></rc>
    <rc><c>S </c><c>   2</c></rc>
    <rc><c>S </c><c>   2</c></rc>
    <rc><c>S </c><c>   2</c></rc>
    <rc><c>S </c><c>   2</c></rc>
    <rc><c>S </c><c>   2</c></rc>
    <rc><c>Pt</c><c>   3</c></rc>
   </set>
  </array>
  <array name="atomtypes" >
   <dimension dim="1">type</dimension>
   <field type="int">atomspertype</field>
   <field type="string">element</field>
   <field>mass</field>
   <field>valence</field>
   <field type="string">pseudopotential</field>
   <set>
    <rc><c>  25</c><c>Mo</c><c>     95.94000000</c><c>     14.00000000</c><c>  PAW_PBE Mo_sv 02Feb2006               </c></rc>
    <rc><c>  50</c><c>S </c><c>     32.06600000</c><c>      6.00000000</c><c>  PAW_PBE S 06Sep2000                   </c></rc>
    <rc><c>   1</c><c>Pt</c><c>    195.08000000</c><c>     10.00000000</c><c>  PAW_PBE Pt 04Feb2005                  </c></rc>
   </set>
  </array>
 </atominfo>
 <structure name="initialpos" >
  <crystal>
   <varray name="basis" >
    <v>      15.62500000       0.00000000       0.00000000 </v>
    <v>      -7.81250000      13.53164693       0.00000000 </v>
    <v>       0.00000000       0.00000000      20.00000000 </v>
   </varray>
   <i name="volume">   4228.63966688 </i>
   <varray name="rec_basis" >
    <v>       0.06400000       0.03695042       0.00000000 </v>
    <v>       0.00000000       0.07390083       0.00000000 </v>
    <v>       0.00000000       0.00000000       0.05000000 </v>
   </varray>
  </crystal>
  <varray name="positions" >
   <v>       0.06652681       0.13292430       0.18579542 </v>
   <v>       0.26639749       0.13292430       0.18579542 </v>
   <v>       0.46666060       0.13333938       0.18599725 </v>
   <v>       0.66666555       0.13333110       0.18598801 </v>
   <v>       0.86667878       0.13333938       0.18599725 </v>
   <v>       0.06652681       0.33360249       0.18579542 </v>
   <v>       0.26666666       0.33333332       0.18351419 </v>
   <v>       0.46707568       0.33360249       0.18579542 </v>
   <v>       0.66663696       0.33331219       0.18599259 </v>
   <v>       0.86667522       0.33331219       0.18599259 </v>
   <v>       0.06665444       0.53334554       0.18602592 </v>
   <v>       0.26639749       0.53347317       0.18579542 </v>
   <v>       0.46707568       0.53347317       0.18579542 </v>
   <v>       0.66669110       0.53334554       0.18602592 </v>
   <v>       0.86666988       0.53333977       0.18599791 </v>
   <v>       0.06666021       0.73333010       0.18599791 </v>
   <v>       0.26668779       0.73332476       0.18599259 </v>
   <v>       0.46666060       0.73332120       0.18599725 </v>
   <v>       0.66663696       0.73332476       0.18599259 </v>
   <v>       0.86666988       0.73333010       0.18599791 </v>
   <v>       0.06665444       0.93330888       0.18602592 </v>
   <v>       0.26668779       0.93336301       0.18599259 </v>
   <v>       0.46666888       0.93333443       0.18598801 </v>
   <v>       0.66666555       0.93333443       0.18598801 </v>
   <v>       0.86667522       0.93336301       0.18599259 </v>
   <v>       0.13331754       0.06663507       0.10686675 </v>
   <v>       0.33335515       0.06666781       0.10687620 </v>
   <v>       0.53333133       0.06666867       0.10688758 </v>
   <v>       0.73333736       0.06666867       0.10688758 </v>
   <v>       0.93331267       0.06666781       0.10687620 </v>
   <v>       0.13347395       0.26673697       0.10702557 </v>
   <v>       0.33326303       0.26673697       0.10702557 </v>
   <v>       0.53333219       0.26664484       0.10687620 </v>
   <v>       0.73333267       0.26666533       0.10689327 </v>
   <v>       0.93331267       0.26664484       0.10687620 </v>
   <v>       0.13331754       0.46668245       0.10686675 </v>
   <v>       0.33326303       0.46652605       0.10702557 </v>
   <v>       0.53336493       0.46668245       0.10686675 </v>
   <v>       0.73331157       0.46666537       0.10688352 </v>
   <v>       0.93335381       0.46666537       0.10688352 </v>
   <v>       0.13333463       0.66664619       0.10688352 </v>
   <v>       0.33335515       0.66668732       0.10687620 </v>
   <v>       0.53333219       0.66668732       0.10687620 </v>
   <v>       0.73331157       0.66664619       0.10688352 </v>
   <v>       0.93333334       0.66666666       0.10688857 </v>
   <v>       0.13333463       0.86668843       0.10688352 </v>
   <v>       0.33333467       0.86666733       0.10689327 </v>
   <v>       0.53333133       0.86666264       0.10688758 </v>
   <v>       0.73333267       0.86666733       0.10689327 </v>
   <v>       0.93335381       0.86668843       0.10688352 </v>
   <v>       0.13336490       0.06672979       0.26504580 </v>
   <v>       0.33334531       0.06666945       0.26511898 </v>
   <v>       0.53333340       0.06666659       0.26508746 </v>
   <v>       0.73333320       0.06666659       0.26508746 </v>
   <v>       0.93332415       0.06666945       0.26511898 </v>
   <v>       0.12697104       0.26348551       0.26450468 </v>
   <v>       0.33651448       0.26348551       0.26450468 </v>
   <v>       0.53333054       0.26665468       0.26511898 </v>
   <v>       0.73333286       0.26666570       0.26508460 </v>
   <v>       0.93332415       0.26665468       0.26511898 </v>
   <v>       0.13336490       0.46663510       0.26504580 </v>
   <v>       0.33651448       0.47302895       0.26450468 </v>
   <v>       0.53327021       0.46663510       0.26504580 </v>
   <v>       0.73333952       0.46666384       0.26508118 </v>
   <v>       0.93332433       0.46666384       0.26508118 </v>
   <v>       0.13333616       0.66667567       0.26508118 </v>
   <v>       0.33334531       0.66667584       0.26511898 </v>
   <v>       0.53333054       0.66667584       0.26511898 </v>
   <v>       0.73333952       0.66667567       0.26508118 </v>
   <v>       0.93333334       0.66666666       0.26508296 </v>
   <v>       0.13333616       0.86666048       0.26508118 </v>
   <v>       0.33333430       0.86666714       0.26508460 </v>
   <v>       0.53333340       0.86666679       0.26508746 </v>
   <v>       0.73333286       0.86666714       0.26508460 </v>
   <v>       0.93332433       0.86666048       0.26508118 </v>
   <v>       0.26666666       0.33333332       0.32834836 </v>
  </varray>
 </structure>
 <calculation>
  <scstep>
   <time name="dav">   66.69   67.67</time>
   <time name="total">   74.28   77.02</time>
   <dipole>
    <v name="dipole">      0.00000000       0.00000000      -0.00008179 </v>
    <i name="Tr[quadrupol]"> -27152.87312066 </i>
    <i name="Echarged">      0.00000000 </i>
    <i name="Edipol_quadrupol">      0.00000000 </i>
    <i name="Eion">      0.00000000 </i>
   </dipole>
   <energy>
    <i name="alphaZ">    724.79410282 </i>
    <i name="ewald"> 146290.29741566 </i>
    <i name="hartreedc">-199761.84866274 </i>
    <i name="XCdc">   2300.09265195 </i>
    <i name="pawpsdc">  49050.56298338 </i>
    <i name="pawaedc"> -48366.95294024 </i>
    <i name="eentropy">     -0.06382946 </i>
    <i name="bandstr">  -5967.55191794 </i>
    <i name="atom">  61277.49441763 </i>
    <i name="e_fr_energy">   5546.82422107 </i>
    <i name="e_wo_entrp">   5546.88805053 </i>
    <i name="e_0_energy">   5546.85613580 </i>
   </energy>
  </scstep>
  <scstep>
   <time name="dav">   72.50   73.07</time>
   <time name="total">   72.50   73.07</time>
   <dipole>
    <v name="dipole">      0.00000000       0.00000000      -0.00008179 </v>
    <i name="Tr[quadrupol]"> -27152.87312066 </i>
    <i name="Echarged">      0.00000000 </i>
    <i name="Edipol_quadrupol">      0.00000000 </i>
    <i name="Eion">      0.00000000 </i>
   </dipole>
   <energy>
    <i name="e_fr_energy">    145.74554716 </i>
    <i name="e_wo_entrp">    145.74554716 </i>
    <i name="e_0_energy">    145.74554716 </i>
   </energy>
  </scstep>
  <scstep>
   <time name="dav">   65.99   66.45</time>
   <time name="total">   65.99   66.45</time>
   <dipole>
    <v name="dipole">      0.00000000       0.00000000      -0.00008179 </v>
    <i name="Tr[quadrupol]"> -27152.87312066 </i>
    <i name="Echarged">      0.00000000 </i>
    <i name="Edipol_quadrupol">      0.00000000 </i>
    <i name="Eion">      0.00000000 </i>
   </dipole>
   <energy>
    <i name="e_fr_energy">   -403.01801690 </i>
    <i name="e_wo_entrp">   -403.01801690 </i>
    <i name="e_0_energy">   -403.01801690 </i>
   </energy>
  </scstep>
  <scstep>
   <time name="dav">   66.53   67.17</time>
   <time name="total">   66.53   67.17</time>
   <dipole>
    <v name="dipole">      0.00000000       0.00000000      -0.00008179 </v>
    <i name="Tr[quadrupol]"> -27152.87312066 </i>
    <i name="Echarged">      0.00000000 </i>
    <i name="Edipol_quadrupol">      0.00000000 </i>
    <i name="Eion">      0.00000000 </i>
   </dipole>
   <energy>
    <i name="e_fr_energy">   -420.75664768 </i>
    <i name="e_wo_entrp">   -420.75664768 </i>
    <i name="e_0_energy">   -420.75664768 </i>
   </energy>
  </scstep>
  <scstep>
   <time name="dav">   69.31   69.79</time>
   <time name="total">   69.31   69.79</time>
   <dipole>
    <v name="dipole">      0.00000000       0.00000000      -0.00008179 </v>
    <i name="Tr[quadrupol]"> -27152.87312066 </i>
    <i name="Echarged">      0.00000000 </i>
    <i name="Edipol_quadrupol">      0.00000000 </i>
    <i name="Eion">      0.00000000 </i>
   </dipole>
   <energy>
    <i name="e_fr_energy">   -421.29879839 </i>
    <i name="e_wo_entrp">   -421.29879839 </i>
    <i name="e_0_energy">   -421.29879839 </i>
   </energy>
  </scstep>
  <scstep>
   <time name="dav">   67.06   67.67</time>
   <time name="total">   67.06   67.67</time>
   <dipole>
    <v name="dipole">      0.00000000       0.00000000      -0.00008179 </v>
    <i name="Tr[quadrupol]"> -27152.87312066 </i>
    <i name="Echarged">      0.00000000 </i>
    <i name="Edipol_quadrupol">      0.00000000 </i>
    <i name="Eion">      0.00000000 </i>
   </dipole>
   <energy>
    <i name="e_fr_energy">   -421.32172204 </i>
    <i name="e_wo_entrp">   -421.32172204 </i>
    <i name="e_0_energy">   -421.32172204 </i>
   </energy>
  </scstep>
  <scstep>
   <time name="dav">   68.68   69.21</time>
   <time name="total">   68.68   69.21</time>
   <dipole>
    <v name="dipole">      0.00000000       0.00000000      -0.00008179 </v>
    <i name="Tr[quadrupol]"> -27152.87312066 </i>
    <i name="Echarged">      0.00000000 </i>
    <i name="Edipol_quadrupol">      0.00000000 </i>
    <i name="Eion">      0.00000000 </i>
   </dipole>
   <energy>
    <i name="e_fr_energy">   -421.32293125 </i>
    <i name="e_wo_entrp">   -421.32293125 </i>
    <i name="e_0_energy">   -421.32293125 </i>
   </energy>
  </scstep>
  <scstep>
   <time name="dav">   67.34   67.99</time>
   <time name="total">   67.34   67.99</time>
   <dipole>
    <v name="dipole">      0.00000000       0.00000000      -0.00008179 </v>
    <i name="Tr[quadrupol]"> -27152.87312066 </i>
    <i name="Echarged">      0.00000000 </i>
    <i name="Edipol_quadrupol">      0.00000000 </i>
    <i name="Eion">      0.00000000 </i>
   </dipole>
   <energy>
    <i name="e_fr_energy">   -421.32298614 </i>
    <i name="e_wo_entrp">   -421.32298614 </i>
    <i name="e_0_energy">   -421.32298614 </i>
   </energy>
  </scstep>
  <scstep>
   <time name="dav">   64.86   65.38</time>
   <time name="total">   64.87   65.39</time>
   <dipole>
    <v name="dipole">      0.00000000       0.00000000      -0.00008179 </v>
    <i name="Tr[quadrupol]"> -27152.87312066 </i>
    <i name="Echarged">      0.00000000 </i>
    <i name="Edipol_quadrupol">      0.00000000 </i>
    <i name="Eion">      0.00000000 </i>
   </dipole>
   <energy>
    <i name="e_fr_energy">   -421.32298919 </i>
    <i name="e_wo_entrp">   -421.32298919 </i>
    <i name="e_0_energy">   -421.32298919 </i>
   </energy>
  </scstep>
  <scstep>
   <time name="dav">   56.48   57.02</time>
   <time name="total">   59.77   60.42</time>
   <dipole>
    <v name="dipole">      0.00000000       0.00000000      -0.00008179 </v>
    <i name="Tr[quadrupol]"> -27152.87312066 </i>
    <i name="Echarged">      0.00000000 </i>
    <i name="Edipol_quadrupol">      0.00000000 </i>
    <i name="Eion">      0.00000000 </i>
   </dipole>
   <energy>
    <i name="e_fr_energy">   -421.32298937 </i>
    <i name="e_wo_entrp">   -421.32298937 </i>
    <i name="e_0_energy">   -421.32298937 </i>
   </energy>
  </scstep>
  <scstep>
   <time name="dav">   60.45   60.92</time>
   <time name="total">   71.07   71.71</time>
   <dipole>
    <v name="dipole">      0.00000000       0.00000000      -0.21987853 </v>
    <i name="Tr[quadrupol]"> -27152.29447819 </i>
    <i name="Echarged">      0.00000000 </i>
    <i name="Edipol_quadrupol">      0.00000000 </i>
    <i name="Eion">      0.00000000 </i>
   </dipole>
   <energy>
    <i name="e_fr_energy">   -389.04389665 </i>
    <i name="e_wo_entrp">   -389.04389665 </i>
    <i name="e_0_energy">   -389.04389665 </i>
   </energy>
  </scstep>
  <scstep>
   <time name="dav">   60.62   61.11</time>
   <time name="total">   71.33   71.92</time>
   <dipole>
    <v name="dipole">      0.00000000       0.00000000      -0.30011448 </v>
    <i name="Tr[quadrupol]"> -27160.26121937 </i>
    <i name="Echarged">      0.00000000 </i>
    <i name="Edipol_quadrupol">      0.00000000 </i>
    <i name="Eion">      0.00000000 </i>
   </dipole>
   <energy>
    <i name="e_fr_energy">   -392.10636525 </i>
    <i name="e_wo_entrp">   -392.10636525 </i>
    <i name="e_0_energy">   -392.10636525 </i>
   </energy>
  </scstep>
  <scstep>
   <time name="dav">   60.05   60.55</time>
   <time name="total">   70.35   70.95</time>
   <dipole>
    <v name="dipole">      0.00000000       0.00000000      -0.28557732 </v>
    <i name="Tr[quadrupol]"> -27159.71108842 </i>
    <i name="Echarged">      0.00000000 </i>
    <i name="Edipol_quadrupol">      0.00000000 </i>
    <i name="Eion">      0.00000000 </i>
   </dipole>
   <energy>
    <i name="e_fr_energy">   -391.36195664 </i>
    <i name="e_wo_entrp">   -391.36195664 </i>
    <i name="e_0_energy">   -391.36195664 </i>
   </energy>
  </scstep>
  <scstep>
   <time name="dav">   61.42   61.97</time>
   <time name="total">   72.03   72.71</time>
   <dipole>
    <v name="dipole">      0.00000000       0.00000000      -0.48870376 </v>
    <i name="Tr[quadrupol]"> -27161.05004798 </i>
    <i name="Echarged">      0.00000000 </i>
    <i name="Edipol_quadrupol">      0.00000000 </i>
    <i name="Eion">      0.00000000 </i>
   </dipole>
   <energy>
    <i name="e_fr_energy">   -394.70665810 </i>
    <i name="e_wo_entrp">   -394.70665810 </i>
    <i name="e_0_energy">   -394.70665810 </i>
   </energy>
  </scstep>
  <scstep>
   <time name="dav">   58.87   59.31</time>
   <time name="total">   69.24   69.77</time>
   <dipole>
    <v name="dipole">      0.00000000       0.00000000      -0.36180272 </v>
    <i name="Tr[quadrupol]"> -27162.01529653 </i>
    <i name="Echarged">      0.00000000 </i>
    <i name="Edipol_quadrupol">      0.00000000 </i>
    <i name="Eion">      0.00000000 </i>
   </dipole>
   <energy>
    <i name="e_fr_energy">   -396.81719263 </i>
    <i name="e_wo_entrp">   -396.81719263 </i>
    <i name="e_0_energy">   -396.81719263 </i>
   </energy>
  </scstep>
  <scstep>
   <time name="dav">   59.08   59.58</time>
   <time name="total">   69.76   70.35</time>
   <dipole>
    <v name="dipole">      0.00000000       0.00000000      -0.30691099 </v>
    <i name="Tr[quadrupol]"> -27163.04288885 </i>
    <i name="Echarged">      0.00000000 </i>
    <i name="Edipol_quadrupol">      0.00000000 </i>
    <i name="Eion">      0.00000000 </i>
   </dipole>
   <energy>
    <i name="e_fr_energy">   -399.12305127 </i>
    <i name="e_wo_entrp">   -399.12305127 </i>
    <i name="e_0_energy">   -399.12305127 </i>
   </energy>
  </scstep>
  <scstep>
   <time name="dav">   61.07   61.55</time>
   <time name="total">   71.75   72.35</time>
   <dipole>
    <v name="dipole">      0.00000000       0.00000000      -0.30220629 </v>
    <i name="Tr[quadrupol]"> -27164.16480752 </i>
    <i name="Echarged">      0.00000000 </i>
    <i name="Edipol_quadrupol">      0.00000000 </i>
    <i name="Eion">      0.00000000 </i>
   </dipole>
   <energy>
    <i name="e_fr_energy">   -400.99414952 </i>
    <i name="e_wo_entrp">   -400.99414952 </i>
    <i name="e_0_energy">   -400.99414952 </i>
   </energy>
  </scstep>
  <scstep>
   <time name="dav">   62.84   63.38</time>
   <time name="total">   73.08   73.74</time>
   <dipole>
    <v name="dipole">      0.00000000       0.00000000      -0.22082319 </v>
    <i name="Tr[quadrupol]"> -27164.76900857 </i>
    <i name="Echarged">      0.00000000 </i>
    <i name="Edipol_quadrupol">      0.00000000 </i>
    <i name="Eion">      0.00000000 </i>
   </dipole>
   <energy>
    <i name="e_fr_energy">   -401.38057408 </i>
    <i name="e_wo_entrp">   -401.38057408 </i>
    <i name="e_0_energy">   -401.38057408 </i>
   </energy>
  </scstep>
  <scstep>
   <time name="dav">   61.18   61.69</time>
   <time name="total">   71.78   72.41</time>
   <dipole>
    <v name="dipole">      0.00000000       0.00000000      -0.18152569 </v>
    <i name="Tr[quadrupol]"> -27165.09146860 </i>
    <i name="Echarged">      0.00000000 </i>
    <i name="Edipol_quadrupol">      0.00000000 </i>
    <i name="Eion">      0.00000000 </i>
   </dipole>
   <energy>
    <i name="e_fr_energy">   -401.45962677 </i>
    <i name="e_wo_entrp">   -401.45962677 </i>
    <i name="e_0_energy">   -401.45962677 </i>
   </energy>
  </scstep>
  <scstep>
   <time name="dav">   61.65   62.20</time>
   <time name="total">   72.33   72.97</time>
   <dipole>
    <v name="dipole">      0.00000000       0.00000000      -0.15684804 </v>
    <i name="Tr[quadrupol]"> -27165.18357938 </i>
    <i name="Echarged">      0.00000000 </i>
    <i name="Edipol_quadrupol">      0.00000000 </i>
    <i name="Eion">      0.00000000 </i>
   </dipole>
   <energy>
    <i name="e_fr_energy">   -401.46089348 </i>
    <i name="e_wo_entrp">   -401.46089348 </i>
    <i name="e_0_energy">   -401.46089348 </i>
   </energy>
  </scstep>
  <scstep>
   <time name="dav">   58.99   59.46</time>
   <time name="total">   69.25   69.85</time>
   <dipole>
    <v name="dipole">      0.00000000       0.00000000      -0.14150270 </v>
    <i name="Tr[quadrupol]"> -27165.21732728 </i>
    <i name="Echarged">      0.00000000 </i>
    <i name="Edipol_quadrupol">      0.00000000 </i>
    <i name="Eion">      0.00000000 </i>
   </dipole>
   <energy>
    <i name="e_fr_energy">   -401.45923242 </i>
    <i name="e_wo_entrp">   -401.45923242 </i>
    <i name="e_0_energy">   -401.45923242 </i>
   </energy>
  </scstep>
  <scstep>
   <time name="dav">   60.43   60.88</time>
   <time name="total">   71.06   71.59</time>
   <dipole>
    <v name="dipole">      0.00000000       0.00000000      -0.13163342 </v>
    <i name="Tr[quadrupol]"> -27165.23666724 </i>
    <i name="Echarged">      0.00000000 </i>
    <i name="Edipol_quadrupol">      0.00000000 </i>
    <i name="Eion">      0.00000000 </i>
   </dipole>
   <energy>
    <i name="e_fr_energy">   -401.45680426 </i>
    <i name="e_wo_entrp">   -401.45680426 </i>
    <i name="e_0_energy">   -401.45680426 </i>
   </energy>
  </scstep>
  <scstep>
   <time name="dav">   61.18   61.54</time>
   <time name="total">   71.52   71.94</time>
   <dipole>
    <v name="dipole">      0.00000000       0.00000000      -0.12386968 </v>
    <i name="Tr[quadrupol]"> -27165.26434830 </i>
    <i name="Echarged">      0.00000000 </i>
    <i name="Edipol_quadrupol">      0.00000000 </i>
    <i name="Eion">      0.00000000 </i>
   </dipole>
   <energy>
    <i name="e_fr_energy">   -401.45647552 </i>
    <i name="e_wo_entrp">   -401.45647552 </i>
    <i name="e_0_energy">   -401.45647552 </i>
   </energy>
  </scstep>
  <scstep>
   <time name="dav">   63.72   64.27</time>
   <time name="total">   74.40   75.04</time>
   <dipole>
    <v name="dipole">      0.00000000       0.00000000      -0.11089650 </v>
    <i name="Tr[quadrupol]"> -27165.41422546 </i>
    <i name="Echarged">      0.00000000 </i>
    <i name="Edipol_quadrupol">      0.00000000 </i>
    <i name="Eion">      0.00000000 </i>
   </dipole>
   <energy>
    <i name="e_fr_energy">   -401.45734642 </i>
    <i name="e_wo_entrp">   -401.45734642 </i>
    <i name="e_0_energy">   -401.45734642 </i>
   </energy>
  </scstep>
  <scstep>
   <time name="dav">   62.07   62.50</time>
   <time name="total">   72.74   73.26</time>
   <dipole>
    <v name="dipole">      0.00000000       0.00000000      -0.11167207 </v>
    <i name="Tr[quadrupol]"> -27165.51068132 </i>
    <i name="Echarged">      0.00000000 </i>
    <i name="Edipol_quadrupol">      0.00000000 </i>
    <i name="Eion">      0.00000000 </i>
   </dipole>
   <energy>
    <i name="e_fr_energy">   -401.45784522 </i>
    <i name="e_wo_entrp">   -401.45784522 </i>
    <i name="e_0_energy">   -401.45784522 </i>
   </energy>
  </scstep>
  <scstep>
   <time name="dav">   60.81   61.42</time>
   <time name="total">   71.13   71.83</time>
   <dipole>
    <v name="dipole">      0.00000000       0.00000000      -0.11309598 </v>
    <i name="Tr[quadrupol]"> -27165.56507820 </i>
    <i name="Echarged">      0.00000000 </i>
    <i name="Edipol_quadrupol">      0.00000000 </i>
    <i name="Eion">      0.00000000 </i>
   </dipole>
   <energy>
    <i name="e_fr_energy">   -401.45797962 </i>
    <i name="e_wo_entrp">   -401.45797962 </i>
    <i name="e_0_energy">   -401.45797962 </i>
   </energy>
  </scstep>
  <scstep>
   <time name="dav">   62.73   63.14</time>
   <time name="total">   73.42   73.91</time>
   <dipole>
    <v name="dipole">      0.00000000       0.00000000      -0.11337840 </v>
    <i name="Tr[quadrupol]"> -27165.58800274 </i>
    <i name="Echarged">      0.00000000 </i>
    <i name="Edipol_quadrupol">      0.00000000 </i>
    <i name="Eion">      0.00000000 </i>
   </dipole>
   <energy>
    <i name="e_fr_energy">   -401.45794789 </i>
    <i name="e_wo_entrp">   -401.45794789 </i>
    <i name="e_0_energy">   -401.45794789 </i>
   </energy>
  </scstep>
  <scstep>
   <time name="dav">   60.80   61.38</time>
   <time name="total">   71.41   72.08</time>
   <dipole>
    <v name="dipole">      0.00000000       0.00000000      -0.11338004 </v>
    <i name="Tr[quadrupol]"> -27165.62106269 </i>
    <i name="Echarged">      0.00000000 </i>
    <i name="Edipol_quadrupol">      0.00000000 </i>
    <i name="Eion">      0.00000000 </i>
   </dipole>
   <energy>
    <i name="e_fr_energy">   -401.45789219 </i>
    <i name="e_wo_entrp">   -401.45789219 </i>
    <i name="e_0_energy">   -401.45789219 </i>
   </energy>
  </scstep>
  <scstep>
   <time name="dav">   57.99   58.31</time>
   <time name="total">   68.23   68.70</time>
   <dipole>
    <v name="dipole">      0.00000000       0.00000000      -0.11385654 </v>
    <i name="Tr[quadrupol]"> -27165.67255048 </i>
    <i name="Echarged">      0.00000000 </i>
    <i name="Edipol_quadrupol">      0.00000000 </i>
    <i name="Eion">      0.00000000 </i>
   </dipole>
   <energy>
    <i name="e_fr_energy">   -401.45782147 </i>
    <i name="e_wo_entrp">   -401.45782147 </i>
    <i name="e_0_energy">   -401.45782147 </i>
   </energy>
  </scstep>
  <scstep>
   <time name="dav">   60.24   60.77</time>
   <time name="total">   70.89   71.54</time>
   <dipole>
    <v name="dipole">      0.00000000       0.00000000      -0.10454808 </v>
    <i name="Tr[quadrupol]"> -27165.51637241 </i>
    <i name="Echarged">      0.00000000 </i>
    <i name="Edipol_quadrupol">      0.00000000 </i>
    <i name="Eion">      0.00000000 </i>
   </dipole>
   <energy>
    <i name="e_fr_energy">   -401.45777199 </i>
    <i name="e_wo_entrp">   -401.45777199 </i>
    <i name="e_0_energy">   -401.45777199 </i>
   </energy>
  </scstep>
  <scstep>
   <time name="dav">   65.12   65.54</time>
   <time name="total">   75.64   76.31</time>
   <dipole>
    <v name="dipole">      0.00000000       0.00000000      -0.10109599 </v>
    <i name="Tr[quadrupol]"> -27165.42839115 </i>
    <i name="Echarged">      0.00000000 </i>
    <i name="Edipol_quadrupol">      0.00000000 </i>
    <i name="Eion">      0.00000000 </i>
   </dipole>
   <energy>
    <i name="e_fr_energy">   -401.45777400 </i>
    <i name="e_wo_entrp">   -401.45777400 </i>
    <i name="e_0_energy">   -401.45777400 </i>
   </energy>
  </scstep>
  <scstep>
   <time name="dav">   49.48   50.01</time>
   <time name="total">   59.80   60.41</time>
   <dipole>
    <v name="dipole">      0.00000000       0.00000000      -0.09950368 </v>
    <i name="Tr[quadrupol]"> -27165.37819140 </i>
    <i name="Echarged">      0.00000000 </i>
    <i name="Edipol_quadrupol">      0.00000000 </i>
    <i name="Eion">      0.00000000 </i>
   </dipole>
   <energy>
    <i name="e_fr_energy">   -401.45776280 </i>
    <i name="e_wo_entrp">   -401.45776280 </i>
    <i name="e_0_energy">   -401.45776280 </i>
   </energy>
  </scstep>
  <scstep>
   <time name="dav">   64.90   65.53</time>
   <time name="total">   75.53   76.24</time>
   <dipole>
    <v name="dipole">      0.00000000       0.00000000      -0.10488993 </v>
    <i name="Tr[quadrupol]"> -27165.40262702 </i>
    <i name="Echarged">      0.00000000 </i>
    <i name="Edipol_quadrupol">      0.00000000 </i>
    <i name="Eion">      0.00000000 </i>
   </dipole>
   <energy>
    <i name="e_fr_energy">   -401.45775506 </i>
    <i name="e_wo_entrp">   -401.45775506 </i>
    <i name="e_0_energy">   -401.45775506 </i>
   </energy>
  </scstep>
  <scstep>
   <time name="dav">   58.84   59.45</time>
   <time name="total">   69.07   69.94</time>
   <dipole>
    <v name="dipole">      0.00000000       0.00000000      -0.10430276 </v>
    <i name="Tr[quadrupol]"> -27165.44392914 </i>
    <i name="Echarged">      0.00000000 </i>
    <i name="Edipol_quadrupol">      0.00000000 </i>
    <i name="Eion">      0.00000000 </i>
   </dipole>
   <energy>
    <i name="e_fr_energy">   -401.45773941 </i>
    <i name="e_wo_entrp">   -401.45773941 </i>
    <i name="e_0_energy">   -401.45773941 </i>
   </energy>
  </scstep>
  <scstep>
   <time name="dav">   59.50   59.83</time>
   <time name="total">   70.12   70.54</time>
   <dipole>
    <v name="dipole">      0.00000000       0.00000000      -0.10466916 </v>
    <i name="Tr[quadrupol]"> -27165.45891703 </i>
    <i name="Echarged">      0.00000000 </i>
    <i name="Edipol_quadrupol">      0.00000000 </i>
    <i name="Eion">      0.00000000 </i>
   </dipole>
   <energy>
    <i name="e_fr_energy">   -401.45774301 </i>
    <i name="e_wo_entrp">   -401.45774301 </i>
    <i name="e_0_energy">   -401.45774301 </i>
   </energy>
  </scstep>
  <scstep>
   <time name="dav">   56.31   56.79</time>
   <time name="total">   66.95   67.54</time>
   <dipole>
    <v name="dipole">      0.00000000       0.00000000      -0.10583846 </v>
    <i name="Tr[quadrupol]"> -27165.48766277 </i>
    <i name="Echarged">      0.00000000 </i>
    <i name="Edipol_quadrupol">      0.00000000 </i>
    <i name="Eion">      0.00000000 </i>
   </dipole>
   <energy>
    <i name="e_fr_energy">   -401.45775107 </i>
    <i name="e_wo_entrp">   -401.45775107 </i>
    <i name="e_0_energy">   -401.45775107 </i>
   </energy>
  </scstep>
  <scstep>
   <time name="dav">   58.80   59.13</time>
   <time name="total">   69.47   69.89</time>
   <dipole>
    <v name="dipole">      0.00000000       0.00000000      -0.10845326 </v>
    <i name="Tr[quadrupol]"> -27165.52119549 </i>
    <i name="Echarged">      0.00000000 </i>
    <i name="Edipol_quadrupol">      0.00000000 </i>
    <i name="Eion">      0.00000000 </i>
   </dipole>
   <energy>
    <i name="e_fr_energy">   -401.45778851 </i>
    <i name="e_wo_entrp">   -401.45778851 </i>
    <i name="e_0_energy">   -401.45778851 </i>
   </energy>
  </scstep>
  <scstep>
   <time name="dav">   58.27   58.79</time>
   <time name="total">   68.97   69.57</time>
   <dipole>
    <v name="dipole">      0.00000000       0.00000000      -0.10954266 </v>
    <i name="Tr[quadrupol]"> -27165.54014800 </i>
    <i name="Echarged">      0.00000000 </i>
    <i name="Edipol_quadrupol">      0.00000000 </i>
    <i name="Eion">      0.00000000 </i>
   </dipole>
   <energy>
    <i name="e_fr_energy">   -401.45779856 </i>
    <i name="e_wo_entrp">   -401.45779856 </i>
    <i name="e_0_energy">   -401.45779856 </i>
   </energy>
  </scstep>
  <scstep>
   <time name="dav">   56.60   56.96</time>
   <time name="total">   66.88   67.32</time>
   <dipole>
    <v name="dipole">      0.00000000       0.00000000      -0.11022119 </v>
    <i name="Tr[quadrupol]"> -27165.55775214 </i>
    <i name="Echarged">      0.00000000 </i>
    <i name="Edipol_quadrupol">      0.00000000 </i>
    <i name="Eion">      0.00000000 </i>
   </dipole>
   <energy>
    <i name="e_fr_energy">   -401.45780457 </i>
    <i name="e_wo_entrp">   -401.45780457 </i>
    <i name="e_0_energy">   -401.45780457 </i>
   </energy>
  </scstep>
  <scstep>
   <time name="dav">   53.40   53.73</time>
   <time name="total">   64.05   64.48</time>
   <dipole>
    <v name="dipole">      0.00000000       0.00000000      -0.11116956 </v>
    <i name="Tr[quadrupol]"> -27165.57947715 </i>
    <i name="Echarged">      0.00000000 </i>
    <i name="Edipol_quadrupol">      0.00000000 </i>
    <i name="Eion">      0.00000000 </i>
   </dipole>
   <energy>
    <i name="e_fr_energy">   -401.45781993 </i>
    <i name="e_wo_entrp">   -401.45781993 </i>
    <i name="e_0_energy">   -401.45781993 </i>
   </energy>
  </scstep>
  <scstep>
   <time name="dav">   54.82   55.12</time>
   <time name="total">   65.02   65.52</time>
   <dipole>
    <v name="dipole">      0.00000000       0.00000000      -0.11117749 </v>
    <i name="Tr[quadrupol]"> -27165.53702419 </i>
    <i name="Echarged">      0.00000000 </i>
    <i name="Edipol_quadrupol">      0.00000000 </i>
    <i name="Eion">      0.00000000 </i>
   </dipole>
   <energy>
    <i name="e_fr_energy">   -401.45782565 </i>
    <i name="e_wo_entrp">   -401.45782565 </i>
    <i name="e_0_energy">   -401.45782565 </i>
   </energy>
  </scstep>
  <scstep>
   <time name="dav">   48.75   49.03</time>
   <time name="total">   59.36   59.78</time>
   <dipole>
    <v name="dipole">      0.00000000       0.00000000      -0.11126835 </v>
    <i name="Tr[quadrupol]"> -27165.52278089 </i>
    <i name="Echarged">      0.00000000 </i>
    <i name="Edipol_quadrupol">      0.00000000 </i>
    <i name="Eion">      0.00000000 </i>
   </dipole>
   <energy>
    <i name="e_fr_energy">   -401.45782504 </i>
    <i name="e_wo_entrp">   -401.45782504 </i>
    <i name="e_0_energy">   -401.45782504 </i>
   </energy>
  </scstep>
  <scstep>
   <time name="dav">   49.84   50.24</time>
   <time name="total">   60.49   61.02</time>
   <dipole>
    <v name="dipole">      0.00000000       0.00000000      -0.11141237 </v>
    <i name="Tr[quadrupol]"> -27165.52383920 </i>
    <i name="Echarged">      0.00000000 </i>
    <i name="Edipol_quadrupol">      0.00000000 </i>
    <i name="Eion">      0.00000000 </i>
   </dipole>
   <energy>
    <i name="e_fr_energy">   -401.45782610 </i>
    <i name="e_wo_entrp">   -401.45782610 </i>
    <i name="e_0_energy">   -401.45782610 </i>
   </energy>
  </scstep>
  <scstep>
   <time name="dav">   54.87   55.12</time>
   <time name="total">   65.45   65.81</time>
   <dipole>
    <v name="dipole">      0.00000000       0.00000000      -0.11157623 </v>
    <i name="Tr[quadrupol]"> -27165.60056910 </i>
    <i name="Echarged">      0.00000000 </i>
    <i name="Edipol_quadrupol">      0.00000000 </i>
    <i name="Eion">      0.00000000 </i>
   </dipole>
   <energy>
    <i name="e_fr_energy">   -401.45782652 </i>
    <i name="e_wo_entrp">   -401.45782652 </i>
    <i name="e_0_energy">   -401.45782652 </i>
   </energy>
  </scstep>
  <scstep>
   <time name="dav">   52.59   52.98</time>
   <time name="total">   62.91   63.40</time>
   <dipole>
    <v name="dipole">      0.00000000       0.00000000      -0.11157526 </v>
    <i name="Tr[quadrupol]"> -27165.67528979 </i>
    <i name="Echarged">      0.00000000 </i>
    <i name="Edipol_quadrupol">      0.00000000 </i>
    <i name="Eion">      0.00000000 </i>
   </dipole>
   <energy>
    <i name="e_fr_energy">   -401.45782624 </i>
    <i name="e_wo_entrp">   -401.45782624 </i>
    <i name="e_0_energy">   -401.45782624 </i>
   </energy>
  </scstep>
  <scstep>
   <time name="dav">   44.82   45.08</time>
   <time name="total">   55.54   55.90</time>
   <dipole>
    <v name="dipole">      0.00000000       0.00000000      -0.11158928 </v>
    <i name="Tr[quadrupol]"> -27165.72002253 </i>
    <i name="Echarged">      0.00000000 </i>
    <i name="Edipol_quadrupol">      0.00000000 </i>
    <i name="Eion">      0.00000000 </i>
   </dipole>
   <energy>
    <i name="e_fr_energy">   -401.45782607 </i>
    <i name="e_wo_entrp">   -401.45782607 </i>
    <i name="e_0_energy">   -401.45782607 </i>
   </energy>
  </scstep>
  <scstep>
   <time name="dav">   50.57   50.86</time>
   <time name="total">   61.19   61.61</time>
   <dipole>
    <v name="dipole">      0.00000000       0.00000000      -0.11166331 </v>
    <i name="Tr[quadrupol]"> -27165.73509905 </i>
    <i name="Echarged">      0.00000000 </i>
    <i name="Edipol_quadrupol">      0.00000000 </i>
    <i name="Eion">      0.00000000 </i>
   </dipole>
   <energy>
    <i name="e_fr_energy">   -401.45782588 </i>
    <i name="e_wo_entrp">   -401.45782588 </i>
    <i name="e_0_energy">   -401.45782588 </i>
   </energy>
  </scstep>
  <scstep>
   <time name="dav">   51.55   51.85</time>
   <time name="total">   58.46   58.94</time>
   <dipole>
    <v name="dipole">      0.00000000       0.00000000      -0.11170408 </v>
    <i name="Tr[quadrupol]"> -27165.75013990 </i>
    <i name="Echarged">      0.00000000 </i>
    <i name="Edipol_quadrupol">      0.00000000 </i>
    <i name="Eion">      0.00000000 </i>
   </dipole>
   <energy>
    <i name="alphaZ">    724.45658011 </i>
    <i name="ewald"> 146290.29741566 </i>
    <i name="hartreedc">-199735.78381729 </i>
    <i name="XCdc">   2280.97905520 </i>
    <i name="pawpsdc">  76006.89190738 </i>
    <i name="pawaedc"> -75422.48506176 </i>
    <i name="eentropy">     -0.00000000 </i>
    <i name="bandstr"> -11823.30832291 </i>
    <i name="atom">  61277.49441763 </i>
    <i name="e_fr_energy">   -401.45782597 </i>
    <i name="e_wo_entrp">   -401.45782597 </i>
    <i name="e_0_energy">   -401.45782597 </i>
   </energy>
  </scstep>
  <structure>
   <crystal>
    <varray name="basis" >
     <v>      15.62500000       0.00000000       0.00000000 </v>
     <v>      -7.81250000      13.53164693       0.00000000 </v>
     <v>       0.00000000       0.00000000      20.00000000 </v>
    </varray>
    <i name="volume">   4228.63966688 </i>
    <varray name="rec_basis" >
     <v>       0.06400000       0.03695042       0.00000000 </v>
     <v>       0.00000000       0.07390083       0.00000000 </v>
     <v>       0.00000000       0.00000000       0.05000000 </v>
    </varray>
   </crystal>
   <varray name="positions" >
    <v>       0.06652681       0.13292430       0.18579542 </v>
    <v>       0.26639749       0.13292430       0.18579542 </v>
    <v>       0.46666060       0.13333938       0.18599725 </v>
    <v>       0.66666555       0.13333110       0.18598801 </v>
    <v>       0.86667878       0.13333938       0.18599725 </v>
    <v>       0.06652681       0.33360249       0.18579542 </v>
    <v>       0.26666666       0.33333332       0.18351419 </v>
    <v>       0.46707568       0.33360249       0.18579542 </v>
    <v>       0.66663696       0.33331219       0.18599259 </v>
    <v>       0.86667522       0.33331219       0.18599259 </v>
    <v>       0.06665444       0.53334554       0.18602592 </v>
    <v>       0.26639749       0.53347317       0.18579542 </v>
    <v>       0.46707568       0.53347317       0.18579542 </v>
    <v>       0.66669110       0.53334554       0.18602592 </v>
    <v>       0.86666988       0.53333977       0.18599791 </v>
    <v>       0.06666021       0.73333010       0.18599791 </v>
    <v>       0.26668779       0.73332476       0.18599259 </v>
    <v>       0.46666060       0.73332120       0.18599725 </v>
    <v>       0.66663696       0.73332476       0.18599259 </v>
    <v>       0.86666988       0.73333010       0.18599791 </v>
    <v>       0.06665444       0.93330888       0.18602592 </v>
    <v>       0.26668779       0.93336301       0.18599259 </v>
    <v>       0.46666888       0.93333443       0.18598801 </v>
    <v>       0.66666555       0.93333443       0.18598801 </v>
    <v>       0.86667522       0.93336301       0.18599259 </v>
    <v>       0.13331754       0.06663507       0.10686675 </v>
    <v>       0.33335515       0.06666781       0.10687620 </v>
    <v>       0.53333133       0.06666867       0.10688758 </v>
    <v>       0.73333736       0.06666867       0.10688758 </v>
    <v>       0.93331267       0.06666781       0.10687620 </v>
    <v>       0.13347395       0.26673697       0.10702557 </v>
    <v>       0.33326303       0.26673697       0.10702557 </v>
    <v>       0.53333219       0.26664484       0.10687620 </v>
    <v>       0.73333267       0.26666533       0.10689327 </v>
    <v>       0.93331267       0.26664484       0.10687620 </v>
    <v>       0.13331754       0.46668245       0.10686675 </v>
    <v>       0.33326303       0.46652605       0.10702557 </v>
    <v>       0.53336493       0.46668245       0.10686675 </v>
    <v>       0.73331157       0.46666537       0.10688352 </v>
    <v>       0.93335381       0.46666537       0.10688352 </v>
    <v>       0.13333463       0.66664619       0.10688352 </v>
    <v>       0.33335515       0.66668732       0.10687620 </v>
    <v>       0.53333219       0.66668732       0.10687620 </v>
    <v>       0.73331157       0.66664619       0.10688352 </v>
    <v>       0.93333334       0.66666666       0.10688857 </v>
    <v>       0.13333463       0.86668843       0.10688352 </v>
    <v>       0.33333467       0.86666733       0.10689327 </v>
    <v>       0.53333133       0.86666264       0.10688758 </v>
    <v>       0.73333267       0.86666733       0.10689327 </v>
    <v>       0.93335381       0.86668843       0.10688352 </v>
    <v>       0.13336490       0.06672979       0.26504580 </v>
    <v>       0.33334531       0.06666945       0.26511898 </v>
    <v>       0.53333340       0.06666659       0.26508746 </v>
    <v>       0.73333320       0.06666659       0.26508746 </v>
    <v>       0.93332415       0.06666945       0.26511898 </v>
    <v>       0.12697104       0.26348551       0.26450468 </v>
    <v>       0.33651448       0.26348551       0.26450468 </v>
    <v>       0.53333054       0.26665468       0.26511898 </v>
    <v>       0.73333286       0.26666570       0.26508460 </v>
    <v>       0.93332415       0.26665468       0.26511898 </v>
    <v>       0.13336490       0.46663510       0.26504580 </v>
    <v>       0.33651448       0.47302895       0.26450468 </v>
    <v>       0.53327021       0.46663510       0.26504580 </v>
    <v>       0.73333952       0.46666384       0.26508118 </v>
    <v>       0.93332433       0.46666384       0.26508118 </v>
    <v>       0.13333616       0.66667567       0.26508118 </v>
    <v>       0.33334531       0.66667584       0.26511898 </v>
    <v>       0.53333054       0.66667584       0.26511898 </v>
    <v>       0.73333952       0.66667567       0.26508118 </v>
    <v>       0.93333334       0.66666666       0.26508296 </v>
    <v>       0.13333616       0.86666048       0.26508118 </v>
    <v>       0.33333430       0.86666714       0.26508460 </v>
    <v>       0.53333340       0.86666679       0.26508746 </v>
    <v>       0.73333286       0.86666714       0.26508460 </v>
    <v>       0.93332433       0.86666048       0.26508118 </v>
    <v>       0.26666666       0.33333332       0.32834836 </v>
   </varray>
  </structure>
  <varray name="forces" >
   <v>      -0.11526738      -0.24925363      -0.17501003 </v>
   <v>       0.11526738      -0.24925363      -0.17501003 </v>
   <v>       0.00223076      -0.00128793      -0.00155617 </v>
   <v>      -0.00000000       0.00324262      -0.00369711 </v>
   <v>      -0.00223076      -0.00128793      -0.00155617 </v>
   <v>      -0.27349366       0.02480234      -0.17501003 </v>
   <v>      -0.00000000      -0.00000000       0.89569173 </v>
   <v>       0.27349366       0.02480234      -0.17501003 </v>
   <v>       0.01651139      -0.00617336      -0.00509356 </v>
   <v>      -0.01651139      -0.00617336      -0.00509356 </v>
   <v>      -0.00298126       0.00172123       0.00673412 </v>
   <v>      -0.15822628       0.22445129      -0.17501003 </v>
   <v>       0.15822628       0.22445129      -0.17501003 </v>
   <v>       0.00298126       0.00172123       0.00673412 </v>
   <v>      -0.00000000      -0.00202897      -0.00724579 </v>
   <v>       0.00175714       0.00101448      -0.00724579 </v>
   <v>      -0.00290941       0.01738596      -0.00509356 </v>
   <v>      -0.00000000       0.00257586      -0.00155617 </v>
   <v>       0.00290941       0.01738596      -0.00509356 </v>
   <v>      -0.00175714       0.00101448      -0.00724579 </v>
   <v>      -0.00000000      -0.00344246       0.00673412 </v>
   <v>       0.01360198      -0.01121260      -0.00509356 </v>
   <v>      -0.00280819      -0.00162131      -0.00369711 </v>
   <v>       0.00280819      -0.00162131      -0.00369711 </v>
   <v>      -0.01360198      -0.01121260      -0.00509356 </v>
   <v>      -0.00000000      -0.07725495      -0.11495782 </v>
   <v>       0.02264482      -0.02145888      -0.04545036 </v>
   <v>       0.00131670      -0.00076020      -0.00072624 </v>
   <v>      -0.00131670      -0.00076020      -0.00072624 </v>
   <v>      -0.02264482      -0.02145888      -0.04545036 </v>
   <v>      -0.09285950      -0.05361246      -0.20005593 </v>
   <v>       0.09285950      -0.05361246      -0.20005593 </v>
   <v>       0.02990634      -0.00888155      -0.04545036 </v>
   <v>      -0.00000000      -0.00064273       0.00401364 </v>
   <v>      -0.02990634      -0.00888155      -0.04545036 </v>
   <v>      -0.06690475       0.03862747      -0.11495782 </v>
   <v>       0.00000000       0.10722492      -0.20005593 </v>
   <v>       0.06690475       0.03862747      -0.11495782 </v>
   <v>      -0.00247246      -0.00020267       0.00281034 </v>
   <v>       0.00247246      -0.00020267       0.00281034 </v>
   <v>       0.00141175      -0.00203988       0.00281034 </v>
   <v>      -0.00726152       0.03034043      -0.04545036 </v>
   <v>       0.00726152       0.03034043      -0.04545036 </v>
   <v>      -0.00141175      -0.00203988       0.00281034 </v>
   <v>      -0.00000000      -0.00000000       0.00409127 </v>
   <v>      -0.00106072       0.00224255       0.00281034 </v>
   <v>       0.00055662       0.00032137       0.00401364 </v>
   <v>      -0.00000000       0.00152040      -0.00072624 </v>
   <v>      -0.00055662       0.00032137       0.00401364 </v>
   <v>       0.00106072       0.00224255       0.00281034 </v>
   <v>      -0.00000000       0.03739119      -0.02415113 </v>
   <v>       0.02112945      -0.06501256      -0.00424933 </v>
   <v>      -0.00279308       0.00161259       0.00184355 </v>
   <v>       0.00279308       0.00161259       0.00184355 </v>
   <v>      -0.02112945      -0.06501256      -0.00424933 </v>
   <v>      -0.21392364      -0.12350887       0.53509120 </v>
   <v>       0.21392364      -0.12350887       0.53509120 </v>
   <v>       0.06686726       0.01420764      -0.00424933 </v>
   <v>      -0.00000000       0.00024545      -0.00064007 </v>
   <v>      -0.06686726       0.01420764      -0.00424933 </v>
   <v>       0.03238172      -0.01869560      -0.02415113 </v>
   <v>      -0.00000000       0.24701774       0.53509120 </v>
   <v>      -0.03238172      -0.01869560      -0.02415113 </v>
   <v>       0.00183373      -0.00308888       0.00351884 </v>
   <v>      -0.00183373      -0.00308888       0.00351884 </v>
   <v>       0.00175818       0.00313250       0.00351884 </v>
   <v>      -0.04573780       0.05080493      -0.00424933 </v>
   <v>       0.04573780       0.05080493      -0.00424933 </v>
   <v>      -0.00175818       0.00313250       0.00351884 </v>
   <v>      -0.00000000      -0.00000000       0.00395249 </v>
   <v>       0.00359191      -0.00004362       0.00351884 </v>
   <v>      -0.00021256      -0.00012272      -0.00064007 </v>
   <v>      -0.00000000      -0.00322517       0.00184355 </v>
   <v>       0.00021256      -0.00012272      -0.00064007 </v>
   <v>      -0.00359191      -0.00004362       0.00351884 </v>
   <v>      -0.00000000      -0.00000000      -0.14684762 </v>
  </varray>
  <varray name="stress" >
   <v>      12.81749788       0.00000000      -0.00000000 </v>
   <v>       0.00000000      12.81749788       0.00000000 </v>
   <v>       0.00000000       0.00000000       1.07312534 </v>
  </varray>
  <energy>
   <i name="e_fr_energy">   -401.45782597 </i>
   <i name="e_wo_entrp">   -401.45782597 </i>
   <i name="e_0_energy">     -0.00000000 </i>
  </energy>
  <time name="totalsc"> 3355.94 3385.61</time>
 </calculation>
 <calculation>
  <scstep>
   <time name="dav">   58.43   58.95</time>
   <time name="total">   68.84   69.41</time>
   <dipole>
    <v name="dipole">      0.00000000       0.00000000      -0.11169995 </v>
    <i name="Tr[quadrupol]"> -27165.25567771 </i>
    <i name="Echarged">      0.00000000 </i>
    <i name="Edipol_quadrupol">      0.00000000 </i>
    <i name="Eion">      0.00000000 </i>
   </dipole>
   <energy>
    <i name="alphaZ">    724.66895553 </i>
    <i name="ewald"> 146262.68138972 </i>
    <i name="hartreedc">-199708.99173009 </i>
    <i name="XCdc">   2280.88252005 </i>
    <i name="pawpsdc">  76006.89040190 </i>
    <i name="pawaedc"> -75422.48355580 </i>
    <i name="eentropy">     -0.00000000 </i>
    <i name="bandstr"> -11822.62322082 </i>
    <i name="atom">  61277.49441763 </i>
    <i name="e_fr_energy">   -401.48082188 </i>
    <i name="e_wo_entrp">   -401.48082188 </i>
    <i name="e_0_energy">   -401.48082188 </i>
   </energy>
  </scstep>
  <scstep>
   <time name="dav">   60.20   60.52</time>
   <time name="total">   70.91   71.28</time>
   <dipole>
    <v name="dipole">      0.00000000       0.00000000      -0.11489693 </v>
    <i name="Tr[quadrupol]"> -27165.22164052 </i>
    <i name="Echarged">      0.00000000 </i>
    <i name="Edipol_quadrupol">      0.00000000 </i>
    <i name="Eion">      0.00000000 </i>
   </dipole>
   <energy>
    <i name="e_fr_energy">   -401.48732694 </i>
    <i name="e_wo_entrp">   -401.48732694 </i>
    <i name="e_0_energy">   -401.48732694 </i>
   </energy>
  </scstep>
  <scstep>
   <time name="dav">   63.07   63.73</time>
   <time name="total">   73.64   74.40</time>
   <dipole>
    <v name="dipole">      0.00000000       0.00000000      -0.11282878 </v>
    <i name="Tr[quadrupol]"> -27165.29361780 </i>
    <i name="Echarged">      0.00000000 </i>
    <i name="Edipol_quadrupol">      0.00000000 </i>
    <i name="Eion">      0.00000000 </i>
   </dipole>
   <energy>
    <i name="e_fr_energy">   -401.48727974 </i>
    <i name="e_wo_entrp">   -401.48727974 </i>
    <i name="e_0_energy">   -401.48727974 </i>
   </energy>
  </scstep>
  <scstep>
   <time name="dav">   59.49   59.89</time>
   <time name="total">   69.65   70.18</time>
   <dipole>
    <v name="dipole">      0.00000000       0.00000000      -0.11405656 </v>
    <i name="Tr[quadrupol]"> -27165.37383788 </i>
    <i name="Echarged">      0.00000000 </i>
    <i name="Edipol_quadrupol">      0.00000000 </i>
    <i name="Eion">      0.00000000 </i>
   </dipole>
   <energy>
    <i name="e_fr_energy">   -401.48732558 </i>
    <i name="e_wo_entrp">   -401.48732558 </i>
    <i name="e_0_energy">   -401.48732558 </i>
   </energy>
  </scstep>
  <scstep>
   <time name="dav">   59.13   59.90</time>
   <time name="total">   69.67   70.61</time>
   <dipole>
    <v name="dipole">      0.00000000       0.00000000      -0.11450791 </v>
    <i name="Tr[quadrupol]"> -27165.39081424 </i>
    <i name="Echarged">      0.00000000 </i>
    <i name="Edipol_quadrupol">      0.00000000 </i>
    <i name="Eion">      0.00000000 </i>
   </dipole>
   <energy>
    <i name="e_fr_energy">   -401.48712331 </i>
    <i name="e_wo_entrp">   -401.48712331 </i>
    <i name="e_0_energy">   -401.48712331 </i>
   </energy>
  </scstep>
  <scstep>
   <time name="dav">   61.78   62.43</time>
   <time name="total">   72.35   73.17</time>
   <dipole>
    <v name="dipole">      0.00000000       0.00000000      -0.11366401 </v>
    <i name="Tr[quadrupol]"> -27165.38873149 </i>
    <i name="Echarged">      0.00000000 </i>
    <i name="Edipol_quadrupol">      0.00000000 </i>
    <i name="Eion">      0.00000000 </i>
   </dipole>
   <energy>
    <i name="e_fr_energy">   -401.48711686 </i>
    <i name="e_wo_entrp">   -401.48711686 </i>
    <i name="e_0_energy">   -401.48711686 </i>
   </energy>
  </scstep>
  <scstep>
   <time name="dav">   63.10   63.60</time>
   <time name="total">   73.46   74.04</time>
   <dipole>
    <v name="dipole">      0.00000000       0.00000000      -0.11380614 </v>
    <i name="Tr[quadrupol]"> -27165.39010158 </i>
    <i name="Echarged">      0.00000000 </i>
    <i name="Edipol_quadrupol">      0.00000000 </i>
    <i name="Eion">      0.00000000 </i>
   </dipole>
   <energy>
    <i name="e_fr_energy">   -401.48711431 </i>
    <i name="e_wo_entrp">   -401.48711431 </i>
    <i name="e_0_energy">   -401.48711431 </i>
   </energy>
  </scstep>
  <scstep>
   <time name="dav">   62.78   63.19</time>
   <time name="total">   73.42   73.94</time>
   <dipole>
    <v name="dipole">      0.00000000       0.00000000      -0.11399303 </v>
    <i name="Tr[quadrupol]"> -27165.37610036 </i>
    <i name="Echarged">      0.00000000 </i>
    <i name="Edipol_quadrupol">      0.00000000 </i>
    <i name="Eion">      0.00000000 </i>
   </dipole>
   <energy>
    <i name="e_fr_energy">   -401.48711485 </i>
    <i name="e_wo_entrp">   -401.48711485 </i>
    <i name="e_0_energy">   -401.48711485 </i>
   </energy>
  </scstep>
  <scstep>
   <time name="dav">   62.55   63.00</time>
   <time name="total">   73.09   73.78</time>
   <dipole>
    <v name="dipole">      0.00000000       0.00000000      -0.11393433 </v>
    <i name="Tr[quadrupol]"> -27165.36156199 </i>
    <i name="Echarged">      0.00000000 </i>
    <i name="Edipol_quadrupol">      0.00000000 </i>
    <i name="Eion">      0.00000000 </i>
   </dipole>
   <energy>
    <i name="e_fr_energy">   -401.48711491 </i>
    <i name="e_wo_entrp">   -401.48711491 </i>
    <i name="e_0_energy">   -401.48711491 </i>
   </energy>
  </scstep>
  <scstep>
   <time name="dav">   60.66   61.09</time>
   <time name="total">   71.07   71.60</time>
   <dipole>
    <v name="dipole">      0.00000000       0.00000000      -0.11397631 </v>
    <i name="Tr[quadrupol]"> -27165.34721452 </i>
    <i name="Echarged">      0.00000000 </i>
    <i name="Edipol_quadrupol">      0.00000000 </i>
    <i name="Eion">      0.00000000 </i>
   </dipole>
   <energy>
    <i name="e_fr_energy">   -401.48711550 </i>
    <i name="e_wo_entrp">   -401.48711550 </i>
    <i name="e_0_energy">   -401.48711550 </i>
   </energy>
  </scstep>
  <scstep>
   <time name="dav">   54.10   54.51</time>
   <time name="total">   64.70   65.36</time>
   <dipole>
    <v name="dipole">      0.00000000       0.00000000      -0.11402374 </v>
    <i name="Tr[quadrupol]"> -27165.34740545 </i>
    <i name="Echarged">      0.00000000 </i>
    <i name="Edipol_quadrupol">      0.00000000 </i>
    <i name="Eion">      0.00000000 </i>
   </dipole>
   <energy>
    <i name="e_fr_energy">   -401.48711590 </i>
    <i name="e_wo_entrp">   -401.48711590 </i>
    <i name="e_0_energy">   -401.48711590 </i>
   </energy>
  </scstep>
  <scstep>
   <time name="dav">   48.59   48.89</time>
   <time name="total">   59.18   59.57</time>
   <dipole>
    <v name="dipole">      0.00000000       0.00000000      -0.11407884 </v>
    <i name="Tr[quadrupol]"> -27165.33245754 </i>
    <i name="Echarged">      0.00000000 </i>
    <i name="Edipol_quadrupol">      0.00000000 </i>
    <i name="Eion">      0.00000000 </i>
   </dipole>
   <energy>
    <i name="e_fr_energy">   -401.48711634 </i>
    <i name="e_wo_entrp">   -401.48711634 </i>
    <i name="e_0_energy">   -401.48711634 </i>
   </energy>
  </scstep>
  <scstep>
   <time name="dav">   49.46   49.96</time>
   <time name="total">   60.08   60.70</time>
   <dipole>
    <v name="dipole">      0.00000000       0.00000000      -0.11411827 </v>
    <i name="Tr[quadrupol]"> -27165.31760054 </i>
    <i name="Echarged">      0.00000000 </i>
[...]
       <r>   -64.7655     0.0000     0.0000 </r>
       <r>   -64.5209     0.0000     0.0000 </r>
       <r>   -64.2763     0.0000     0.0000 </r>
       <r>   -64.0317     0.0000     0.0000 </r>
       <r>   -63.7871     0.0000     0.0000 </r>
       <r>   -63.5426     0.0000     0.0000 </r>
       <r>   -63.2980     0.0000     0.0000 </r>
       <r>   -63.0534     0.0000     0.0000 </r>
       <r>   -62.8088     0.0000     0.0000 </r>
       <r>   -62.5642    90.0410    22.0230 </r>
       <r>   -62.3196    12.1717    25.0000 </r>
       <r>   -62.0750     0.0000    25.0000 </r>
       <r>   -61.8304     0.0000    25.0000 </r>
       <r>   -61.5859     0.0000    25.0000 </r>
       <r>   -61.3413     0.0000    25.0000 </r>
       <r>   -61.0967     0.0000    25.0000 </r>
       <r>   -60.8521     0.0000    25.0000 </r>
       <r>   -60.6075     0.0000    25.0000 </r>
       <r>   -60.3629     0.0000    25.0000 </r>
       <r>   -60.1183     0.0000    25.0000 </r>
       <r>   -59.8737     0.0000    25.0000 </r>
       <r>   -59.6292     0.0000    25.0000 </r>
       <r>   -59.3846     0.0000    25.0000 </r>
       <r>   -59.1400     0.0000    25.0000 </r>
       <r>   -58.8954     0.0000    25.0000 </r>
       <r>   -58.6508     0.0000    25.0000 </r>
       <r>   -58.4062     0.0000    25.0000 </r>
       <r>   -58.1616     0.0000    25.0000 </r>
       <r>   -57.9170     0.0000    25.0000 </r>
       <r>   -57.6725     0.0000    25.0000 </r>
       <r>   -57.4279     0.0000    25.0000 </r>
       <r>   -57.1833     0.0000    25.0000 </r>
       <r>   -56.9387     0.0000    25.0000 </r>
       <r>   -56.6941     0.0000    25.0000 </r>
       <r>   -56.4495     0.0000    25.0000 </r>
       <r>   -56.2049     0.0000    25.0000 </r>
       <r>   -55.9603     0.0000    25.0000 </r>
       <r>   -55.7157     0.0000    25.0000 </r>
       <r>   -55.4712     0.0000    25.0000 </r>
       <r>   -55.2266     0.0000    25.0000 </r>
       <r>   -54.9820     0.0000    25.0000 </r>
       <r>   -54.7374     0.0000    25.0000 </r>
       <r>   -54.4928     0.0000    25.0000 </r>
       <r>   -54.2482     0.0000    25.0000 </r>
       <r>   -54.0036     0.0000    25.0000 </r>
       <r>   -53.7590     0.0000    25.0000 </r>
       <r>   -53.5145     0.0000    25.0000 </r>
       <r>   -53.2699     0.0000    25.0000 </r>
       <r>   -53.0253     0.0000    25.0000 </r>
       <r>   -52.7807     0.0000    25.0000 </r>
       <r>   -52.5361     0.0000    25.0000 </r>
       <r>   -52.2915     0.0000    25.0000 </r>
       <r>   -52.0469     0.0000    25.0000 </r>
       <r>   -51.8023     0.0000    25.0000 </r>
       <r>   -51.5578     0.0000    25.0000 </r>
       <r>   -51.3132     0.0000    25.0000 </r>
       <r>   -51.0686     0.0000    25.0000 </r>
       <r>   -50.8240     0.0000    25.0000 </r>
       <r>   -50.5794     0.0000    25.0000 </r>
       <r>   -50.3348     0.0000    25.0000 </r>
       <r>   -50.0902     0.0000    25.0000 </r>
       <r>   -49.8456     0.0000    25.0000 </r>
       <r>   -49.6011     0.0000    25.0000 </r>
       <r>   -49.3565     0.0000    25.0000 </r>
       <r>   -49.1119     0.0000    25.0000 </r>
       <r>   -48.8673     0.0000    25.0000 </r>
       <r>   -48.6227     0.0000    25.0000 </r>
       <r>   -48.3781     0.0000    25.0000 </r>
       <r>   -48.1335     0.0000    25.0000 </r>
       <r>   -47.8889     0.0000    25.0000 </r>
       <r>   -47.6443     0.0000    25.0000 </r>
       <r>   -47.3998     0.0000    25.0000 </r>
       <r>   -47.1552     0.0000    25.0000 </r>
       <r>   -46.9106     0.0000    25.0000 </r>
       <r>   -46.6660     0.0000    25.0000 </r>
       <r>   -46.4214     0.0000    25.0000 </r>
       <r>   -46.1768     0.0000    25.0000 </r>
       <r>   -45.9322     0.0000    25.0000 </r>
       <r>   -45.6876     0.0000    25.0000 </r>
       <r>   -45.4431     0.0000    25.0000 </r>
       <r>   -45.1985     0.0000    25.0000 </r>
       <r>   -44.9539     0.0000    25.0000 </r>
       <r>   -44.7093     0.0000    25.0000 </r>
       <r>   -44.4647     0.0000    25.0000 </r>
       <r>   -44.2201     0.0000    25.0000 </r>
       <r>   -43.9755     0.0000    25.0000 </r>
       <r>   -43.7309     0.0000    25.0000 </r>
       <r>   -43.4864     0.0000    25.0000 </r>
       <r>   -43.2418     0.0000    25.0000 </r>
       <r>   -42.9972     0.0000    25.0000 </r>
       <r>   -42.7526     0.0000    25.0000 </r>
       <r>   -42.5080     0.0000    25.0000 </r>
       <r>   -42.2634     0.0000    25.0000 </r>
       <r>   -42.0188     0.0000    25.0000 </r>
       <r>   -41.7742     0.0000    25.0000 </r>
       <r>   -41.5297     0.0000    25.0000 </r>
       <r>   -41.2851     0.0000    25.0000 </r>
       <r>   -41.0405     0.0000    25.0000 </r>
       <r>   -40.7959     0.0000    25.0000 </r>
       <r>   -40.5513     0.0000    25.0000 </r>
       <r>   -40.3067     0.0000    25.0000 </r>
       <r>   -40.0621     0.0000    25.0000 </r>
       <r>   -39.8175     0.0000    25.0000 </r>
       <r>   -39.5729     0.0000    25.0000 </r>
       <r>   -39.3284     0.0000    25.0000 </r>
       <r>   -39.0838     0.0000    25.0000 </r>
       <r>   -38.8392     0.0000    25.0000 </r>
       <r>   -38.5946     0.0000    25.0000 </r>
       <r>   -38.3500     0.0000    25.0000 </r>
       <r>   -38.1054     0.0000    25.0000 </r>
       <r>   -37.8608     0.0000    25.0000 </r>
       <r>   -37.6162     0.0000    25.0000 </r>
       <r>   -37.3717     0.0000    25.0000 </r>
       <r>   -37.1271     0.0038    25.0009 </r>
       <r>   -36.8825    64.6315    40.8090 </r>
       <r>   -36.6379   203.8467    90.6675 </r>
       <r>   -36.3933    38.1562   100.0000 </r>
       <r>   -36.1487     0.0000   100.0000 </r>
       <r>   -35.9041     0.0000   100.0000 </r>
       <r>   -35.6595     0.0000   100.0000 </r>
       <r>   -35.4150     0.0000   100.0000 </r>
       <r>   -35.1704     0.0000   100.0000 </r>
       <r>   -34.9258     0.0000   100.0000 </r>
       <r>   -34.6812     0.0000   100.0000 </r>
       <r>   -34.4366     0.0000   100.0000 </r>
       <r>   -34.1920     0.0000   100.0000 </r>
       <r>   -33.9474     0.0000   100.0000 </r>
       <r>   -33.7028     0.0000   100.0000 </r>
       <r>   -33.4582     0.0000   100.0000 </r>
       <r>   -33.2137     0.0000   100.0000 </r>
       <r>   -32.9691     0.0000   100.0000 </r>
       <r>   -32.7245     0.0000   100.0000 </r>
       <r>   -32.4799     0.0000   100.0000 </r>
       <r>   -32.2353     0.0000   100.0000 </r>
       <r>   -31.9907     0.0000   100.0000 </r>
       <r>   -31.7461     0.0000   100.0000 </r>
       <r>   -31.5015     0.0000   100.0000 </r>
       <r>   -31.2570     0.0000   100.0000 </r>
       <r>   -31.0124     0.0000   100.0000 </r>
       <r>   -30.7678     0.0000   100.0000 </r>
       <r>   -30.5232     0.0000   100.0000 </r>
       <r>   -30.2786     0.0000   100.0000 </r>
       <r>   -30.0340     0.0000   100.0000 </r>
       <r>   -29.7894     0.0000   100.0000 </r>
       <r>   -29.5448     0.0000   100.0000 </r>
       <r>   -29.3003     0.0000   100.0000 </r>
       <r>   -29.0557     0.0000   100.0000 </r>
       <r>   -28.8111     0.0000   100.0000 </r>
       <r>   -28.5665     0.0000   100.0000 </r>
       <r>   -28.3219     0.0000   100.0000 </r>
       <r>   -28.0773     0.0000   100.0000 </r>
       <r>   -27.8327     0.0000   100.0000 </r>
       <r>   -27.5881     0.0000   100.0000 </r>
       <r>   -27.3436     0.0000   100.0000 </r>
       <r>   -27.0990     0.0000   100.0000 </r>
       <r>   -26.8544     0.0000   100.0000 </r>
       <r>   -26.6098     0.0000   100.0000 </r>
       <r>   -26.3652     0.0000   100.0000 </r>
       <r>   -26.1206     0.0000   100.0000 </r>
       <r>   -25.8760     0.0000   100.0000 </r>
       <r>   -25.6314     0.0000   100.0000 </r>
       <r>   -25.3868     0.0000   100.0000 </r>
       <r>   -25.1423     0.0000   100.0000 </r>
       <r>   -24.8977     0.0000   100.0000 </r>
       <r>   -24.6531     0.0000   100.0000 </r>
       <r>   -24.4085     0.0000   100.0000 </r>
       <r>   -24.1639     0.0000   100.0000 </r>
       <r>   -23.9193     0.0000   100.0000 </r>
       <r>   -23.6747     0.0000   100.0000 </r>
       <r>   -23.4301     0.0000   100.0000 </r>
       <r>   -23.1856     0.0000   100.0000 </r>
       <r>   -22.9410     0.0000   100.0000 </r>
       <r>   -22.6964     0.0000   100.0000 </r>
       <r>   -22.4518     0.0000   100.0000 </r>
       <r>   -22.2072     0.0000   100.0000 </r>
       <r>   -21.9626     0.0000   100.0000 </r>
       <r>   -21.7180     0.0000   100.0000 </r>
       <r>   -21.4734     0.0000   100.0000 </r>
       <r>   -21.2289     0.0000   100.0000 </r>
       <r>   -20.9843     0.0000   100.0000 </r>
       <r>   -20.7397     0.0000   100.0000 </r>
       <r>   -20.4951     0.0000   100.0000 </r>
       <r>   -20.2505     0.0000   100.0000 </r>
       <r>   -20.0059     0.0000   100.0000 </r>
       <r>   -19.7613     0.0000   100.0000 </r>
       <r>   -19.5167     0.0000   100.0000 </r>
       <r>   -19.2722     0.0000   100.0000 </r>
       <r>   -19.0276     0.0000   100.0000 </r>
       <r>   -18.7830     0.0000   100.0000 </r>
       <r>   -18.5384     0.0000   100.0000 </r>
       <r>   -18.2938     0.0000   100.0000 </r>
       <r>   -18.0492     0.0000   100.0000 </r>
       <r>   -17.8046     0.0000   100.0000 </r>
       <r>   -17.5600     0.0000   100.0000 </r>
       <r>   -17.3154     0.0000   100.0000 </r>
       <r>   -17.0709     0.0000   100.0000 </r>
       <r>   -16.8263     0.0000   100.0000 </r>
       <r>   -16.5817     0.0000   100.0000 </r>
       <r>   -16.3371     0.0000   100.0000 </r>
       <r>   -16.0925     0.9150   100.2238 </r>
       <r>   -15.8479     6.2433   101.7508 </r>
       <r>   -15.6033     6.8479   103.4257 </r>
       <r>   -15.3587     4.8315   104.6075 </r>
       <r>   -15.1142     8.2106   106.6157 </r>
       <r>   -14.8696    11.5590   109.4429 </r>
       <r>   -14.6250    18.4196   113.9481 </r>
       <r>   -14.3804    28.6220   120.9487 </r>
       <r>   -14.1358    35.0845   129.5299 </r>
       <r>   -13.8912    59.7059   144.1333 </r>
       <r>   -13.6466    23.9761   149.9975 </r>
       <r>   -13.4020     0.0101   150.0000 </r>
       <r>   -13.1575     0.0000   150.0000 </r>
       <r>   -12.9129     0.0000   150.0000 </r>
       <r>   -12.6683     0.0000   150.0000 </r>
       <r>   -12.4237     0.0000   150.0000 </r>
       <r>   -12.1791     0.0000   150.0000 </r>
       <r>   -11.9345     0.0000   150.0000 </r>
       <r>   -11.6899     0.0000   150.0000 </r>
       <r>   -11.4453     0.0000   150.0000 </r>
       <r>   -11.2007     0.0000   150.0000 </r>
       <r>   -10.9562     0.0000   150.0000 </r>
       <r>   -10.7116     0.0000   150.0000 </r>
       <r>   -10.4670     0.0000   150.0000 </r>
       <r>   -10.2224     0.0000   150.0000 </r>
       <r>    -9.9778     0.0000   150.0000 </r>
       <r>    -9.7332     0.0000   150.0000 </r>
       <r>    -9.4886     0.0000   150.0000 </r>
       <r>    -9.2440     0.0000   150.0000 </r>
       <r>    -8.9995     0.0000   150.0000 </r>
       <r>    -8.7549     0.0000   150.0000 </r>
       <r>    -8.5103     0.0000   150.0000 </r>
       <r>    -8.2657     0.0000   150.0000 </r>
       <r>    -8.0211     1.8701   150.4574 </r>
       <r>    -7.7765     5.6062   151.8286 </r>
       <r>    -7.5319    15.8030   155.6938 </r>
       <r>    -7.2873    24.8612   161.7746 </r>
       <r>    -7.0428    41.8603   172.0131 </r>
       <r>    -6.7982    47.0689   183.5256 </r>
       <r>    -6.5536    17.6625   187.8456 </r>
       <r>    -6.3090     8.9797   190.0420 </r>
       <r>    -6.0644    12.1947   193.0247 </r>
       <r>    -5.8198    32.6255   201.0045 </r>
       <r>    -5.5752    49.7014   213.1608 </r>
       <r>    -5.3306    25.0295   219.2828 </r>
       <r>    -5.0861    47.2669   230.8437 </r>
       <r>    -4.8415    40.2183   240.6806 </r>
       <r>    -4.5969    24.6797   246.7169 </r>
       <r>    -4.3523    24.0671   252.6035 </r>
       <r>    -4.1077    16.6840   256.6842 </r>
       <r>    -3.8631    40.8353   266.6720 </r>
       <r>    -3.6185    49.6796   278.8230 </r>
       <r>    -3.3739    30.2301   286.2169 </r>
       <r>    -3.1293    29.5545   293.4456 </r>
       <r>    -2.8848    29.0984   300.5627 </r>
       <r>    -2.6402    36.2881   309.4384 </r>
       <r>    -2.3956    34.3341   317.8361 </r>
       <r>    -2.1510    28.3855   324.7788 </r>
       <r>    -1.9064     8.8936   326.9541 </r>
       <r>    -1.6618    12.4400   329.9968 </r>
       <r>    -1.4172     0.0131   330.0000 </r>
       <r>    -1.1726     0.0000   330.0000 </r>
       <r>    -0.9281     0.0000   330.0000 </r>
       <r>    -0.6835     0.0000   330.0000 </r>
       <r>    -0.4389     0.0342   330.0084 </r>
       <r>    -0.1943     4.0543   331.0000 </r>
       <r>     0.0503     7.5431   332.8449 </r>
       <r>     0.2949    36.0886   341.6718 </r>
       <r>     0.5395    46.9294   353.1502 </r>
       <r>     0.7841    54.3698   366.4484 </r>
       <r>     1.0286    55.2517   379.9623 </r>
       <r>     1.2732    47.5685   391.5970 </r>
       <r>     1.5178    28.8536   398.6542 </r>
       <r>     1.7624    24.1967   404.5724 </r>
       <r>     2.0070    16.5357   408.6169 </r>
       <r>     2.2516    18.8080   413.2171 </r>
       <r>     2.4962    35.1479   421.8138 </r>
       <r>     2.7408    18.9801   426.4561 </r>
       <r>     2.9853    11.9153   429.3705 </r>
       <r>     3.2299    11.2799   432.1294 </r>
       <r>     3.4745     9.3531   434.4170 </r>
       <r>     3.7191     9.3169   436.6958 </r>
       <r>     3.9637     9.0301   438.9045 </r>
       <r>     4.2083     4.4790   440.0000 </r>
       <r>     4.4529     0.0000   440.0000 </r>
       <r>     4.6975     0.0000   440.0000 </r>
       <r>     4.9421     0.0000   440.0000 </r>
       <r>     5.1866     0.0000   440.0000 </r>
       <r>     5.4312     0.0000   440.0000 </r>
       <r>     5.6758     0.0000   440.0000 </r>
       <r>     5.9204     0.0000   440.0000 </r>
       <r>     6.1650     0.0000   440.0000 </r>
       <r>     6.4096     0.0000   440.0000 </r>
       <r>     6.6542     0.0000   440.0000 </r>
       <r>     6.8988     0.0000   440.0000 </r>
       <r>     7.1433     0.0000   440.0000 </r>
       <r>     7.3879     0.0000   440.0000 </r>
      </set>
     </set>
    </array>
   </total>
  </dos>
 </calculation>
 <structure name="finalpos" >
  <crystal>
   <varray name="basis" >
    <v>      15.62500000       0.00000000       0.00000000 </v>
    <v>      -7.81250000      13.53164693       0.00000000 </v>
    <v>       0.00000000       0.00000000      20.00000000 </v>
   </varray>
   <i name="volume">   4228.63966688 </i>
   <varray name="rec_basis" >
    <v>       0.06400000       0.03695042       0.00000000 </v>
    <v>       0.00000000       0.07390083       0.00000000 </v>
    <v>       0.00000000       0.00000000       0.05000000 </v>
   </varray>
  </crystal>
  <varray name="positions" >
   <v>       0.06554800       0.13197288       0.18701292 </v>
   <v>       0.26642488       0.13197288       0.18701292 </v>
   <v>       0.46680018       0.13319980       0.18539957 </v>
   <v>       0.66665094       0.13330188       0.18473282 </v>
   <v>       0.86639962       0.13319980       0.18539957 </v>
   <v>       0.06554800       0.33357510       0.18701292 </v>
   <v>       0.26666666       0.33333332       0.19060606 </v>
   <v>       0.46802710       0.33357510       0.18701292 </v>
   <v>       0.66695703       0.33329280       0.18497794 </v>
   <v>       0.86633577       0.33329280       0.18497794 </v>
   <v>       0.06657268       0.53342729       0.18572578 </v>
   <v>       0.26642488       0.53445198       0.18701292 </v>
   <v>       0.46802710       0.53445198       0.18701292 </v>
   <v>       0.66685461       0.53342729       0.18572578 </v>
   <v>       0.86668917       0.53337834       0.18504086 </v>
   <v>       0.06662164       0.73331081       0.18504086 </v>
   <v>       0.26670718       0.73366421       0.18497794 </v>
   <v>       0.46680018       0.73360036       0.18539957 </v>
   <v>       0.66695703       0.73366421       0.18497794 </v>
   <v>       0.86668917       0.73331081       0.18504086 </v>
   <v>       0.06657268       0.93314537       0.18572578 </v>
   <v>       0.26670718       0.93304295       0.18497794 </v>
   <v>       0.46669809       0.93334904       0.18473282 </v>
   <v>       0.66665094       0.93334904       0.18473282 </v>
   <v>       0.86633577       0.93304295       0.18497794 </v>
   <v>       0.13365667       0.06731332       0.10736266 </v>
   <v>       0.33307735       0.06721178       0.10646984 </v>
   <v>       0.53315748       0.06684252       0.10579654 </v>
   <v>       0.73368505       0.06684252       0.10579654 </v>
   <v>       0.93413444       0.06721178       0.10646984 </v>
   <v>       0.13587821       0.26793909       0.11049310 </v>
   <v>       0.33206090       0.26793909       0.11049310 </v>
   <v>       0.53278822       0.26692264       0.10646984 </v>
   <v>       0.73336497       0.26672992       0.10563812 </v>
   <v>       0.93413444       0.26692264       0.10646984 </v>
   <v>       0.13365667       0.46634333       0.10736266 </v>
   <v>       0.33206090       0.46412179       0.11049310 </v>
   <v>       0.53268668       0.46634333       0.10736266 </v>
   <v>       0.73313685       0.46688060       0.10608299 </v>
   <v>       0.93374376       0.46688060       0.10608299 </v>
   <v>       0.13311940       0.66625623       0.10608299 </v>
   <v>       0.33307735       0.66586556       0.10646984 </v>
   <v>       0.53278822       0.66586556       0.10646984 </v>
   <v>       0.73313685       0.66625623       0.10608299 </v>
   <v>       0.93333334       0.66666666       0.10591188 </v>
   <v>       0.13311940       0.86686315       0.10608299 </v>
   <v>       0.33327008       0.86663503       0.10563812 </v>
   <v>       0.53315748       0.86631495       0.10579654 </v>
   <v>       0.73336497       0.86663503       0.10563812 </v>
   <v>       0.93374376       0.86686315       0.10608299 </v>
   <v>       0.13275046       0.06550091       0.26563548 </v>
   <v>       0.33381226       0.06467595       0.26489354 </v>
   <v>       0.53363171       0.06636828       0.26401756 </v>
   <v>       0.73273658       0.06636828       0.26401756 </v>
   <v>       0.93086371       0.06467595       0.26489354 </v>
   <v>       0.12128012       0.26064005       0.26991347 </v>
   <v>       0.33935995       0.26064005       0.26991347 </v>
   <v>       0.53532405       0.26618774       0.26489354 </v>
   <v>       0.73319680       0.26639358       0.26396704 </v>
   <v>       0.93086371       0.26618774       0.26489354 </v>
   <v>       0.13275046       0.46724953       0.26563548 </v>
   <v>       0.33935995       0.47871988       0.26991347 </v>
   <v>       0.53449909       0.46724953       0.26563548 </v>
   <v>       0.73376967       0.46656636       0.26427991 </v>
   <v>       0.93279671       0.46656636       0.26427991 </v>
   <v>       0.13343363       0.66720329       0.26427991 </v>
   <v>       0.33381226       0.66913629       0.26489354 </v>
   <v>       0.53532405       0.66913629       0.26489354 </v>
   <v>       0.73376967       0.66720329       0.26427991 </v>
   <v>       0.93333334       0.66666666       0.26408694 </v>
   <v>       0.13343363       0.86623033       0.26427991 </v>
   <v>       0.33360642       0.86680320       0.26396704 </v>
   <v>       0.53363171       0.86726341       0.26401756 </v>
   <v>       0.73319680       0.86680320       0.26396704 </v>
   <v>       0.93279671       0.86623033       0.26427991 </v>
   <v>       0.26666666       0.33333332       0.32845921 </v>
  </varray>
 </structure>
</modeling>
