<?xml version="1.0" encoding="ISO-8859-1"?>
<modeling>
 <generator>
  <i name="program" type="string">vasp </i>
  <i name="version" type="string">5.4.4.18Apr17-6-g9f103f2a35  </i>
  <i name="subversion" type="string">(build Feb 16 2021 16:53:20) complex            parallel </i>
  <i name="platform" type="string">LinuxGNU </i>
  <i name="date" type="string">2021 02 16 </i>
  <i name="time" type="string">17:20:27 </i>
 </generator>
 <incar>
  <i type="int" name="ISTART">     0</i>
  <i type="string" name="PREC">accurate</i>
  <i type="string" name="ALGO"> NORMAL</i>
  <i type="int" name="ISPIN">     2</i>
  <i type="int" name="NELM">   100</i>
  <i type="int" name="NELMDL">   -10</i>
  <i type="int" name="IBRION">     2</i>
  <i type="int" name="NFREE">    10</i>
  <i name="EDIFF">      0.00000010</i>
  <i name="EDIFFG">     -0.01000000</i>
  <i type="int" name="NSW">   200</i>
  <i type="int" name="ISIF">     2</i>
  <i type="int" name="ISYM">     2</i>
  <i name="ENCUT">    500.00000000</i>
  <i name="POTIM">      0.12500000</i>
  <i name="NELECT">    661.00000000</i>
  <i type="string" name="LREAL"> AUTO</i>
  <v name="ROPT">     -0.00020000     -0.00020000     -0.00020000      0.00000000</v>
  <i type="logical" name="LPLANE"> T  </i>
  <i type="int" name="ISMEAR">     0</i>
  <i name="SIGMA">      0.05000000</i>
  <i type="int" name="NWRITE">     1</i>
  <i type="logical" name="LWAVE"> F  </i>
  <i type="logical" name="LCHARG"> T  </i>
  <i type="logical" name="LVTOT"> F  </i>
  <v type="int" name="KPOINT_BSE">    -1     0     0     0</v>
  <i type="int" name="NELM">   100</i>
  <i type="string" name="GGA"> MK</i>
  <i type="int" name="VOSKOWN">     1</i>
  <i name="PARAM1">      0.12340000</i>
  <i name="PARAM2">      1.00000000</i>
  <i type="logical" name="LUSE_VDW"> T  </i>
  <i name="AGGAC">      0.00000000</i>
 </incar>
 <structure name="primitive_cell" >
  <crystal>
   <varray name="basis" >
    <v>      15.62500000       0.00000000       0.00000000 </v>
    <v>      -7.81250000      13.53164693       0.00000000 </v>
    <v>       0.00000000       0.00000000      20.00000000 </v>
   </varray>
   <i name="volume">   4228.63966688 </i>
   <varray name="rec_basis" >
    <v>       0.06400000       0.03695042      -0.00000000 </v>
    <v>       0.00000000       0.07390083       0.00000000 </v>
    <v>       0.00000000      -0.00000000       0.05000000 </v>
   </varray>
  </crystal>
  <varray name="positions" >
   <v>       0.06554800       0.13197288       0.18701292 </v>
   <v>       0.13587821       0.26793909       0.11049310 </v>
   <v>       0.13275046       0.06550091       0.26563548 </v>
   <v>      -0.06913629       0.06467595       0.26489354 </v>
   <v>      -0.06586556       0.06721178       0.10646984 </v>
   <v>       0.13365667       0.06731332       0.10736266 </v>
   <v>       0.12128012       0.26064005       0.26991347 </v>
   <v>      -0.13366423      -0.06695705       0.18497794 </v>
   <v>       0.06657268      -0.06685463       0.18572578 </v>
   <v>      -0.13360038       0.13319980       0.18539957 </v>
   <v>       0.26642488       0.13197288       0.18701292 </v>
   <v>       0.26666666       0.33333332       0.19060606 </v>
   <v>       0.06554800       0.33357510       0.18701292 </v>
   <v>      -0.06720329      -0.13376967       0.26427991 </v>
   <v>       0.33206090       0.26793909       0.11049310 </v>
   <v>      -0.06625624      -0.13313685       0.10608299 </v>
   <v>      -0.06586556       0.26692264       0.10646984 </v>
   <v>      -0.06913629       0.26618774       0.26489354 </v>
   <v>       0.33935995       0.26064005       0.26991347 </v>
   <v>       0.26666666       0.33333332       0.32845921 </v>
   <v>      -0.26680320      -0.13319680       0.26396704 </v>
   <v>       0.33206090       0.46412179       0.11049310 </v>
   <v>      -0.26726342       0.06636828       0.26401756 </v>
   <v>       0.13343363      -0.13376967       0.26427991 </v>
   <v>      -0.26663503      -0.13336497       0.10563812 </v>
   <v>       0.13311940      -0.13313685       0.10608299 </v>
   <v>      -0.26631495       0.06684252       0.10579654 </v>
   <v>       0.33307735       0.06721178       0.10646984 </v>
   <v>       0.13365667       0.46634333       0.10736266 </v>
   <v>       0.33381226       0.06467595       0.26489354 </v>
   <v>       0.13275046       0.46724953       0.26563548 </v>
   <v>       0.33935995       0.47871988       0.26991347 </v>
   <v>      -0.13331083      -0.26668919       0.18504086 </v>
   <v>      -0.33334906      -0.06665096       0.18473282 </v>
   <v>       0.26670718      -0.06695705       0.18497794 </v>
   <v>      -0.13366423       0.33329280       0.18497794 </v>
   <v>       0.26642488      -0.46554802       0.18701292 </v>
   <v>       0.46802710       0.33357510       0.18701292 </v>
   <v>      -0.33304297      -0.26633579       0.18497794 </v>
   <v>       0.06662164      -0.26668919       0.18504086 </v>
   <v>      -0.33334906       0.13330188       0.18473282 </v>
   <v>       0.46680018       0.13319980       0.18539957 </v>
   <v>       0.06657268      -0.46657271       0.18572578 </v>
   <v>       0.46802710      -0.46554802       0.18701292 </v>
   <v>      -0.26623033      -0.33279671       0.26427991 </v>
   <v>      -0.06666666      -0.33333334       0.26408694 </v>
   <v>      -0.26680320       0.26639358       0.26396704 </v>
   <v>      -0.06666666      -0.33333334       0.10591188 </v>
   <v>      -0.26686315      -0.33374377       0.10608299 </v>
   <v>      -0.06720329       0.46656636       0.26427991 </v>
   <v>      -0.46721178       0.26692264       0.10646984 </v>
   <v>      -0.26663503       0.26672992       0.10563812 </v>
   <v>      -0.46731332       0.46634333       0.10736266 </v>
   <v>      -0.06625624       0.46688060       0.10608299 </v>
   <v>      -0.46550091       0.46724953       0.26563548 </v>
   <v>      -0.46467595       0.26618774       0.26489354 </v>
   <v>      -0.46636829      -0.13273659       0.26401756 </v>
   <v>       0.33360642      -0.13319680       0.26396704 </v>
   <v>      -0.46684252      -0.13368505       0.10579654 </v>
   <v>       0.33327008      -0.13336497       0.10563812 </v>
   <v>       0.33307735      -0.33413444       0.10646984 </v>
   <v>       0.33381226      -0.33086371       0.26489354 </v>
   <v>      -0.46467595      -0.33086371       0.26489354 </v>
   <v>       0.13343363      -0.33279671       0.26427991 </v>
   <v>      -0.46636829       0.06636828       0.26401756 </v>
   <v>      -0.46721178      -0.33413444       0.10646984 </v>
   <v>       0.13311940      -0.33374377       0.10608299 </v>
   <v>      -0.46684252       0.06684252       0.10579654 </v>
   <v>      -0.33314539      -0.46657271       0.18572578 </v>
   <v>       0.46680018      -0.26639964       0.18539957 </v>
   <v>      -0.13331083      -0.46662166       0.18504086 </v>
   <v>       0.46669809      -0.06665096       0.18473282 </v>
   <v>       0.26670718      -0.26633579       0.18497794 </v>
   <v>      -0.33304297       0.33329280       0.18497794 </v>
   <v>      -0.26623033       0.46656636       0.26427991 </v>
   <v>      -0.26686315       0.46688060       0.10608299 </v>
  </varray>
 </structure>
 <varray name="primitive_index" >
  <v type="int" >        1 </v>
  <v type="int" >       31 </v>
  <v type="int" >       51 </v>
  <v type="int" >       55 </v>
  <v type="int" >       30 </v>
  <v type="int" >       26 </v>
  <v type="int" >       56 </v>
  <v type="int" >       25 </v>
  <v type="int" >       21 </v>
  <v type="int" >        5 </v>
  <v type="int" >        2 </v>
  <v type="int" >        7 </v>
  <v type="int" >        6 </v>
  <v type="int" >       75 </v>
  <v type="int" >       32 </v>
  <v type="int" >       50 </v>
  <v type="int" >       35 </v>
  <v type="int" >       60 </v>
  <v type="int" >       57 </v>
  <v type="int" >       76 </v>
  <v type="int" >       74 </v>
  <v type="int" >       37 </v>
  <v type="int" >       54 </v>
  <v type="int" >       71 </v>
  <v type="int" >       49 </v>
  <v type="int" >       46 </v>
  <v type="int" >       29 </v>
  <v type="int" >       27 </v>
  <v type="int" >       36 </v>
  <v type="int" >       52 </v>
  <v type="int" >       61 </v>
  <v type="int" >       62 </v>
  <v type="int" >       20 </v>
  <v type="int" >       24 </v>
  <v type="int" >       22 </v>
  <v type="int" >       10 </v>
  <v type="int" >       12 </v>
  <v type="int" >        8 </v>
  <v type="int" >       19 </v>
  <v type="int" >       16 </v>
  <v type="int" >        4 </v>
  <v type="int" >        3 </v>
  <v type="int" >       11 </v>
  <v type="int" >       13 </v>
  <v type="int" >       69 </v>
  <v type="int" >       70 </v>
  <v type="int" >       59 </v>
  <v type="int" >       45 </v>
  <v type="int" >       44 </v>
  <v type="int" >       65 </v>
  <v type="int" >       33 </v>
  <v type="int" >       34 </v>
  <v type="int" >       38 </v>
  <v type="int" >       40 </v>
  <v type="int" >       63 </v>
  <v type="int" >       58 </v>
  <v type="int" >       73 </v>
  <v type="int" >       72 </v>
  <v type="int" >       48 </v>
  <v type="int" >       47 </v>
  <v type="int" >       42 </v>
  <v type="int" >       67 </v>
  <v type="int" >       68 </v>
  <v type="int" >       66 </v>
  <v type="int" >       53 </v>
  <v type="int" >       43 </v>
  <v type="int" >       41 </v>
  <v type="int" >       28 </v>
  <v type="int" >       14 </v>
  <v type="int" >       18 </v>
  <v type="int" >       15 </v>
  <v type="int" >       23 </v>
  <v type="int" >       17 </v>
  <v type="int" >        9 </v>
  <v type="int" >       64 </v>
  <v type="int" >       39 </v>
 </varray>
 <kpoints>
  <generation param="Monkhorst-Pack">
   <v type="int" name="divisions">       3        3        1 </v>
   <v name="usershift">      0.00000000       0.00000000       0.00000000 </v>
   <v name="genvec1">      0.33333333       0.00000000       0.00000000 </v>
   <v name="genvec2">      0.00000000       0.33333333       0.00000000 </v>
   <v name="genvec3">      0.00000000       0.00000000       1.00000000 </v>
   <v name="shift">      0.00000000       0.00000000       0.00000000 </v>
  </generation>
  <varray name="kpointlist" >
   <v>       0.00000000       0.00000000       0.00000000 </v>
   <v>       0.33333333       0.00000000       0.00000000 </v>
   <v>       0.33333333       0.33333333       0.00000000 </v>
  </varray>
  <varray name="weights" >
   <v>       0.11111111 </v>
   <v>       0.66666667 </v>
   <v>       0.22222222 </v>
  </varray>
 </kpoints>
 <parameters>
  <separator name="general" >
   <i type="string" name="SYSTEM">unknown system</i>
   <i type="logical" name="LCOMPAT"> F  </i>
  </separator>
  <separator name="electronic" >
   <i type="string" name="PREC">accura</i>
   <i name="ENMAX">    500.00000000</i>
   <i name="ENAUG">    446.01400000</i>
   <i name="EDIFF">      0.00000010</i>
   <i type="int" name="IALGO">    38</i>
   <i type="int" name="IWAVPR">    11</i>
   <i type="int" name="NBANDS">   440</i>
   <i name="NELECT">    661.00000000</i>
   <i type="int" name="TURBO">     0</i>
   <i type="int" name="IRESTART">     0</i>
   <i type="int" name="NREBOOT">     0</i>
   <i type="int" name="NMIN">     0</i>
   <i name="EREF">      0.00000000</i>
   <separator name="electronic smearing" >
    <i type="int" name="ISMEAR">     0</i>
    <i name="SIGMA">      0.05000000</i>
    <i name="KSPACING">      0.50000000</i>
    <i type="logical" name="KGAMMA"> T  </i>
   </separator>
   <separator name="electronic projectors" >
    <i type="logical" name="LREAL"> T  </i>
    <v name="ROPT">     -0.00020000     -0.00020000     -0.00020000</v>
    <i type="int" name="LMAXPAW">  -100</i>
    <i type="int" name="LMAXMIX">     2</i>
    <i type="logical" name="NLSPLINE"> F  </i>
   </separator>
   <separator name="electronic startup" >
    <i type="int" name="ISTART">     0</i>
    <i type="int" name="ICHARG">     2</i>
    <i type="int" name="INIWAV">     1</i>
   </separator>
   <separator name="electronic spin" >
    <i type="int" name="ISPIN">     2</i>
    <i type="logical" name="LNONCOLLINEAR"> F  </i>
    <v name="MAGMOM">      1.00000000      1.00000000      1.00000000      1.00000000      1.00000000      1.00000000      1.00000000      1.00000000      1.00000000      1.00000000      1.00000000      1.00000000      1.00000000      1.00000000      1.00000000      1.00000000      1.00000000      1.00000000      1.00000000      1.00000000
      1.00000000      1.00000000      1.00000000      1.00000000      1.00000000      1.00000000      1.00000000      1.00000000      1.00000000      1.00000000      1.00000000      1.00000000      1.00000000      1.00000000      1.00000000      1.00000000      1.00000000      1.00000000      1.00000000      1.00000000
      1.00000000      1.00000000      1.00000000      1.00000000      1.00000000      1.00000000      1.00000000      1.00000000      1.00000000      1.00000000      1.00000000      1.00000000      1.00000000      1.00000000      1.00000000      1.00000000      1.00000000      1.00000000      1.00000000      1.00000000
      1.00000000      1.00000000      1.00000000      1.00000000      1.00000000      1.00000000      1.00000000      1.00000000      1.00000000      1.00000000      1.00000000      1.00000000      1.00000000      1.00000000      1.00000000      1.00000000</v>
    <i name="NUPDOWN">     -1.00000000</i>
    <i type="logical" name="LSORBIT"> F  </i>
    <v name="SAXIS">      0.00000000      0.00000000      1.00000000</v>
    <i type="logical" name="LSPIRAL"> F  </i>
    <v name="QSPIRAL">      0.00000000      0.00000000      0.00000000</v>
    <i type="logical" name="LZEROZ"> F  </i>
   </separator>
   <separator name="electronic exchange-correlation" >
    <i type="logical" name="LASPH"> F  </i>
    <i type="logical" name="LMETAGGA"> F  </i>
   </separator>
   <separator name="electronic convergence" >
    <i type="int" name="NELM">   100</i>
    <i type="int" name="NELMDL">   -10</i>
    <i type="int" name="NELMIN">     2</i>
    <i name="ENINI">    500.00000000</i>
    <separator name="electronic convergence detail" >
     <i type="logical" name="LDIAG"> T  </i>
     <i type="logical" name="LSUBROT"> F  </i>
     <i name="WEIMIN">      0.00100000</i>
     <i name="EBREAK">      0.00000000</i>
     <i name="DEPER">      0.30000000</i>
     <i type="int" name="NRMM">     4</i>
     <i name="TIME">      0.40000000</i>
    </separator>
   </separator>
   <separator name="electronic mixer" >
    <i name="AMIX">      0.40000000</i>
    <i name="BMIX">      1.00000000</i>
    <i name="AMIN">      0.10000000</i>
    <i name="AMIX_MAG">      1.60000000</i>
    <i name="BMIX_MAG">      1.00000000</i>
    <separator name="electronic mixer details" >
     <i type="int" name="IMIX">     4</i>
     <i type="logical" name="MIXFIRST"> F  </i>
     <i type="int" name="MAXMIX">   -45</i>
     <i name="WC">    100.00000000</i>
     <i type="int" name="INIMIX">     1</i>
     <i type="int" name="MIXPRE">     1</i>
     <i type="int" name="MREMOVE">     5</i>
    </separator>
   </separator>
   <separator name="electronic dipolcorrection" >
    <i type="logical" name="LDIPOL"> F  </i>
    <i type="logical" name="LMONO"> F  </i>
    <i type="int" name="IDIPOL">     0</i>
    <i name="EPSILON">      1.00000000</i>
    <v name="DIPOL">   -100.00000000   -100.00000000   -100.00000000</v>
    <i name="EFIELD">      0.00000000</i>
   </separator>
  </separator>
  <separator name="grids" >
   <i type="int" name="NGX">   120</i>
   <i type="int" name="NGY">   120</i>
   <i type="int" name="NGZ">   150</i>
   <i type="int" name="NGXF">   240</i>
   <i type="int" name="NGYF">   240</i>
   <i type="int" name="NGZF">   300</i>
   <i type="logical" name="ADDGRID"> F  </i>
  </separator>
  <separator name="ionic" >
   <i type="int" name="NSW">   200</i>
   <i type="int" name="IBRION">     2</i>
   <i type="int" name="MDALGO">     0</i>
   <i type="int" name="ISIF">     2</i>
   <i name="PSTRESS">      0.00000000</i>
   <i name="EDIFFG">     -0.01000000</i>
   <i type="int" name="NFREE">    10</i>
   <i name="POTIM">      0.12500000</i>
   <i name="SMASS">     -3.00000000</i>
   <i name="SCALEE">      1.00000000</i>
  </separator>
  <separator name="ionic md" >
   <i name="TEBEG">      0.00010000</i>
   <i name="TEEND">      0.00010000</i>
   <i type="int" name="NBLOCK">     1</i>
   <i type="int" name="KBLOCK">   200</i>
   <i type="int" name="NPACO">   256</i>
   <i name="APACO">     16.00000000</i>
  </separator>
  <separator name="symmetry" >
   <i type="int" name="ISYM">     2</i>
   <i name="SYMPREC">      0.00001000</i>
  </separator>
  <separator name="dos" >
   <i type="int" name="LORBIT">     0</i>
   <v name="RWIGS">     -1.00000000     -1.00000000     -1.00000000</v>
   <i type="int" name="NEDOS">   301</i>
   <i name="EMIN">     10.00000000</i>
   <i name="EMAX">    -10.00000000</i>
   <i name="EFERMI">      0.00000000</i>
  </separator>
  <separator name="writing" >
   <i type="int" name="NWRITE">     1</i>
   <i type="logical" name="LWAVE"> F  </i>
   <i type="logical" name="LDOWNSAMPLE"> F  </i>
   <i type="logical" name="LCHARG"> T  </i>
   <i type="logical" name="LPARD"> F  </i>
   <i type="logical" name="LVTOT"> F  </i>
   <i type="logical" name="LVHAR"> F  </i>
   <i type="logical" name="LELF"> F  </i>
   <i type="logical" name="LOPTICS"> F  </i>
   <v name="STM">      0.00000000      0.00000000      0.00000000      0.00000000      0.00000000      0.00000000      0.00000000</v>
  </separator>
  <separator name="performance" >
   <i type="int" name="NPAR">     8</i>
   <i type="int" name="NSIM">     4</i>
   <i type="int" name="NBLK">    -1</i>
   <i type="logical" name="LPLANE"> T  </i>
   <i type="logical" name="LSCALAPACK"> T  </i>
   <i type="logical" name="LSCAAWARE"> F  </i>
   <i type="logical" name="LSCALU"> F  </i>
   <i type="logical" name="LASYNC"> F  </i>
   <i type="logical" name="LORBITALREAL"> F  </i>
  </separator>
  <separator name="miscellaneous" >
   <i type="int" name="IDIOT">     3</i>
   <i type="int" name="ISPECIAL">     0</i>
   <i type="logical" name="LMUSIC"> F  </i>
   <v name="POMASS">     95.94000000     32.06600000    195.08000000</v>
   <v name="DARWINR">      0.00000000      0.00000000      0.00000000</v>
   <v name="DARWINV">      1.00000000      1.00000000      1.00000000</v>
   <i type="logical" name="LCORR"> T  </i>
  </separator>
  <i type="logical" name="GGA_COMPAT"> T  </i>
  <i type="logical" name="LBERRY"> F  </i>
  <i type="int" name="ICORELEVEL">     0</i>
  <i type="logical" name="LDAU"> F  </i>
  <i type="int" name="I_CONSTRAINED_M">     0</i>
  <separator name="electronic exchange-correlation" >
   <i type="string" name="GGA">MK</i>
   <i type="int" name="VOSKOWN">     1</i>
   <i type="logical" name="LHFCALC"> F  </i>
   <i type="string" name="PRECFOCK"></i>
   <i type="logical" name="LSYMGRAD"> F  </i>
   <i type="logical" name="LHFONE"> F  </i>
   <i type="logical" name="LRHFCALC"> F  </i>
   <i type="logical" name="LTHOMAS"> F  </i>
   <i type="logical" name="LMODELHF"> F  </i>
   <i name="ENCUT4O">     -1.00000000</i>
   <i type="int" name="EXXOEP">     0</i>
   <i type="int" name="FOURORBIT">     0</i>
   <i name="AEXX">      0.00000000</i>
   <i name="HFALPHA">      0.00000000</i>
   <i name="MCALPHA">      0.00000000</i>
   <i name="ALDAX">      1.00000000</i>
   <i name="AGGAX">      1.00000000</i>
   <i name="ALDAC">      1.00000000</i>
   <i name="AGGAC">      0.00000000</i>
   <i type="int" name="NKREDX">     1</i>
   <i type="int" name="NKREDY">     1</i>
   <i type="int" name="NKREDZ">     1</i>
   <i type="logical" name="SHIFTRED"> F  </i>
   <i type="logical" name="ODDONLY"> F  </i>
   <i type="logical" name="EVENONLY"> F  </i>
   <i type="int" name="LMAXFOCK">     0</i>
   <i type="int" name="NMAXFOCKAE">     0</i>
   <i type="logical" name="LFOCKAEDFT"> F  </i>
   <i name="HFSCREEN">      0.00000000</i>
   <i name="HFSCREENC">      0.00000000</i>
   <i type="int" name="NBANDSGWLOW">     0</i>
  </separator>
  <separator name="vdW DFT" >
   <i type="logical" name="LUSE_VDW"> T  </i>
   <i name="Zab_VDW">     -0.84910000</i>
   <i name="PARAM1">      0.12340000</i>
   <i name="PARAM2">      1.00000000</i>
   <i name="PARAM3">      0.00000000</i>
  </separator>
  <separator name="model GW" >
   <i type="int" name="MODEL_GW">     0</i>
   <i name="MODEL_EPS0">     33.38399737</i>
   <i name="MODEL_ALPHA">      1.00000000</i>
  </separator>
  <separator name="linear response parameters" >
   <i type="logical" name="LEPSILON"> F  </i>
   <i type="logical" name="LRPA"> F  </i>
   <i type="logical" name="LNABLA"> F  </i>
   <i type="logical" name="LVEL"> F  </i>
   <i type="int" name="KINTER">     0</i>
   <i name="CSHIFT">      0.10000000</i>
   <i name="OMEGAMAX">     -1.00000000</i>
   <i name="DEG_THRESHOLD">      0.00200000</i>
   <i name="RTIME">     -0.10000000</i>
   <i name="WPLASMAI">      0.00000000</i>
   <v name="DFIELD">      0.00000000      0.00000000      0.00000000</v>
   <v name="WPLASMA">      0.00000000      0.00000000      0.00000000      0.00000000      0.00000000      0.00000000      0.00000000      0.00000000      0.00000000</v>
  </separator>
  <separator name="orbital magnetization" >
   <i type="logical" name="NUCIND"> F  </i>
   <v name="MAGPOS">      0.00000000      0.00000000      0.00000000</v>
   <i type="logical" name="LNICSALL"> T  </i>
   <i type="logical" name="ORBITALMAG"> F  </i>
   <i type="logical" name="LMAGBLOCH"> F  </i>
   <i type="logical" name="LCHIMAG"> F  </i>
   <i type="logical" name="LGAUGE"> T  </i>
   <i type="int" name="MAGATOM">     0</i>
   <v name="MAGDIPOL">      0.00000000      0.00000000      0.00000000</v>
   <v name="AVECCONST">      0.00000000      0.00000000      0.00000000</v>
  </separator>
  <separator name="response functions" >
   <i type="logical" name="LADDER"> F  </i>
   <i type="logical" name="LRPAFORCE"> F  </i>
   <i type="logical" name="LFXC"> F  </i>
   <i type="logical" name="LHARTREE"> T  </i>
   <i type="int" name="IBSE">     0</i>
   <v type="int" name="KPOINT">    -1     0     0     0</v>
   <i type="logical" name="LTCTE"> F  </i>
   <i type="logical" name="LTETE"> F  </i>
   <i type="logical" name="LTRIPLET"> F  </i>
   <i type="logical" name="LFXCEPS"> F  </i>
   <i type="logical" name="LFXHEG"> F  </i>
   <i type="int" name="NATURALO">     2</i>
   <i type="logical" name="L2ORDER"> F  </i>
   <i type="logical" name="LMP2LT"> F  </i>
   <i type="logical" name="LUSEW"> F  </i>
   <i name="ENCUTGW">     -2.00000000</i>
   <i name="ENCUTGWSOFT">     -2.00000000</i>
   <i name="ENCUTLF">     -1.00000000</i>
   <i type="int" name="LMAXMP2">    -1</i>
   <i name="SCISSOR">      0.00000000</i>
   <i type="int" name="NOMEGA">     0</i>
   <i type="int" name="NOMEGAR">     0</i>
   <i type="int" name="NBANDSGW">    -1</i>
   <i type="int" name="NBANDSO">    -1</i>
   <i type="int" name="NBANDSV">    -1</i>
   <i type="int" name="NELM">   100</i>
   <i type="int" name="NELMHF">     1</i>
   <i type="int" name="DIM">     3</i>
   <i type="int" name="ANTIRES">     0</i>
   <i name="OMEGAMAX">    -30.00000000</i>
   <i name="OMEGAMIN">    -30.00000000</i>
   <i name="OMEGATL">   -200.00000000</i>
   <i type="int" name="OMEGAGRID">   140</i>
   <i name="CSHIFT">     -0.10000000</i>
   <i type="logical" name="SELFENERGY"> F  </i>
   <i type="logical" name="LSPECTRAL"> F  </i>
   <i type="logical" name="LSPECTRALGW"> F  </i>
   <i type="logical" name="LSINGLES"> F  </i>
   <i type="logical" name="LFERMIGW"> F  </i>
   <i type="logical" name="ODDONLYGW"> F  </i>
   <i type="logical" name="EVENONLYGW"> F  </i>
   <i type="int" name="NKREDLFX">     1</i>
   <i type="int" name="NKREDLFY">     1</i>
   <i type="int" name="NKREDLFZ">     1</i>
   <i type="int" name="MAXMEM">  2800</i>
   <i type="int" name="TELESCOPE">     0</i>
   <i type="int" name="TAUPAR">     1</i>
   <i type="int" name="OMEGAPAR">    -1</i>
   <i name="LAMBDA">      1.00000000</i>
  </separator>
  <separator name="External order field" >
   <i name="OFIELD_KAPPA">      0.00000000</i>
   <v name="OFIELD_K">      0.00000000      0.00000000      0.00000000</v>
   <i name="OFIELD_Q6_NEAR">      0.00000000</i>
   <i name="OFIELD_Q6_FAR">      0.00000000</i>
   <i name="OFIELD_A">      0.00000000</i>
  </separator>
 </parameters>
 <atominfo>
  <atoms>      76 </atoms>
  <types>       3 </types>
  <array name="atoms" >
   <dimension dim="1">ion</dimension>
   <field type="string">element</field>
   <field type="int">atomtype</field>
   <set>
    <rc><c>Mo</c><c>   1</c></rc>
    <rc><c>Mo</c><c>   1</c></rc>
    <rc><c>Mo</c><c>   1</c></rc>
    <rc><c>Mo</c><c>   1</c></rc>
    <rc><c>Mo</c><c>   1</c></rc>
    <rc><c>Mo</c><c>   1</c></rc>
    <rc><c>Mo</c><c>   1</c></rc>
    <rc><c>Mo</c><c>   1</c></rc>
    <rc><c>Mo</c><c>   1</c></rc>
    <rc><c>Mo</c><c>   1</c></rc>
    <rc><c>Mo</c><c>   1</c></rc>
    <rc><c>Mo</c><c>   1</c></rc>
    <rc><c>Mo</c><c>   1</c></rc>
    <rc><c>Mo</c><c>   1</c></rc>
    <rc><c>Mo</c><c>   1</c></rc>
    <rc><c>Mo</c><c>   1</c></rc>
    <rc><c>Mo</c><c>   1</c></rc>
    <rc><c>Mo</c><c>   1</c></rc>
    <rc><c>Mo</c><c>   1</c></rc>
    <rc><c>Mo</c><c>   1</c></rc>
    <rc><c>Mo</c><c>   1</c></rc>
    <rc><c>Mo</c><c>   1</c></rc>
    <rc><c>Mo</c><c>   1</c></rc>
    <rc><c>Mo</c><c>   1</c></rc>
    <rc><c>Mo</c><c>   1</c></rc>
    <rc><c>S </c><c>   2</c></rc>
    <rc><c>S </c><c>   2</c></rc>
    <rc><c>S </c><c>   2</c></rc>
    <rc><c>S </c><c>   2</c></rc>
    <rc><c>S </c><c>   2</c></rc>
    <rc><c>S </c><c>   2</c></rc>
    <rc><c>S </c><c>   2</c></rc>
    <rc><c>S </c><c>   2</c></rc>
    <rc><c>S </c><c>   2</c></rc>
    <rc><c>S </c><c>   2</c></rc>
    <rc><c>S </c><c>   2</c></rc>
    <rc><c>S </c><c>   2</c></rc>
    <rc><c>S </c><c>   2</c></rc>
    <rc><c>S </c><c>   2</c></rc>
    <rc><c>S </c><c>   2</c></rc>
    <rc><c>S </c><c>   2</c></rc>
    <rc><c>S </c><c>   2</c></rc>
    <rc><c>S </c><c>   2</c></rc>
    <rc><c>S </c><c>   2</c></rc>
    <rc><c>S </c><c>   2</c></rc>
    <rc><c>S </c><c>   2</c></rc>
    <rc><c>S </c><c>   2</c></rc>
    <rc><c>S </c><c>   2</c></rc>
    <rc><c>S </c><c>   2</c></rc>
    <rc><c>S </c><c>   2</c></rc>
    <rc><c>S </c><c>   2</c></rc>
    <rc><c>S </c><c>   2</c></rc>
    <rc><c>S </c><c>   2</c></rc>
    <rc><c>S </c><c>   2</c></rc>
    <rc><c>S </c><c>   2</c></rc>
    <rc><c>S </c><c>   2</c></rc>
    <rc><c>S </c><c>   2</c></rc>
    <rc><c>S </c><c>   2</c></rc>
    <rc><c>S </c><c>   2</c></rc>
    <rc><c>S </c><c>   2</c></rc>
    <rc><c>S </c><c>   2</c></rc>
    <rc><c>S </c><c>   2</c></rc>
    <rc><c>S </c><c>   2</c></rc>
    <rc><c>S </c><c>   2</c></rc>
    <rc><c>S </c><c>   2</c></rc>
    <rc><c>S </c><c>   2</c></rc>
    <rc><c>S </c><c>   2</c></rc>
    <rc><c>S </c><c>   2</c></rc>
    <rc><c>S </c><c>   2</c></rc>
    <rc><c>S </c><c>   2</c></rc>
    <rc><c>S </c><c>   2</c></rc>
    <rc><c>S </c><c>   2</c></rc>
    <rc><c>S </c><c>   2</c></rc>
    <rc><c>S </c><c>   2</c></rc>
    <rc><c>S </c><c>   2</c></rc>
    <rc><c>Pt</c><c>   3</c></rc>
   </set>
  </array>
  <array name="atomtypes" >
   <dimension dim="1">type</dimension>
   <field type="int">atomspertype</field>
   <field type="string">element</field>
   <field>mass</field>
   <field>valence</field>
   <field type="string">pseudopotential</field>
   <set>
    <rc><c>  25</c><c>Mo</c><c>     95.94000000</c><c>     14.00000000</c><c>  PAW_PBE Mo_sv 02Feb2006               </c></rc>
    <rc><c>  50</c><c>S </c><c>     32.06600000</c><c>      6.00000000</c><c>  PAW_PBE S 06Sep2000                   </c></rc>
    <rc><c>   1</c><c>Pt</c><c>    195.08000000</c><c>     10.00000000</c><c>  PAW_PBE Pt 04Feb2005                  </c></rc>
   </set>
  </array>
 </atominfo>
 <structure name="initialpos" >
  <crystal>
   <varray name="basis" >
    <v>      15.62500000       0.00000000       0.00000000 </v>
    <v>      -7.81250000      13.53164693       0.00000000 </v>
    <v>       0.00000000       0.00000000      20.00000000 </v>
   </varray>
   <i name="volume">   4228.63966688 </i>
   <varray name="rec_basis" >
    <v>       0.06400000       0.03695042      -0.00000000 </v>
    <v>       0.00000000       0.07390083       0.00000000 </v>
    <v>       0.00000000      -0.00000000       0.05000000 </v>
   </varray>
  </crystal>
  <varray name="positions" >
   <v>       0.06554800       0.13197288       0.18701292 </v>
   <v>       0.26642488       0.13197288       0.18701292 </v>
   <v>       0.46680018       0.13319980       0.18539957 </v>
   <v>       0.66665094       0.13330188       0.18473282 </v>
   <v>       0.86639962       0.13319980       0.18539957 </v>
   <v>       0.06554800       0.33357510       0.18701292 </v>
   <v>       0.26666666       0.33333332       0.19060606 </v>
   <v>       0.46802710       0.33357510       0.18701292 </v>
   <v>       0.66695703       0.33329280       0.18497794 </v>
   <v>       0.86633577       0.33329280       0.18497794 </v>
   <v>       0.06657268       0.53342729       0.18572578 </v>
   <v>       0.26642488       0.53445198       0.18701292 </v>
   <v>       0.46802710       0.53445198       0.18701292 </v>
   <v>       0.66685461       0.53342729       0.18572578 </v>
   <v>       0.86668917       0.53337834       0.18504086 </v>
   <v>       0.06662164       0.73331081       0.18504086 </v>
   <v>       0.26670718       0.73366421       0.18497794 </v>
   <v>       0.46680018       0.73360036       0.18539957 </v>
   <v>       0.66695703       0.73366421       0.18497794 </v>
   <v>       0.86668917       0.73331081       0.18504086 </v>
   <v>       0.06657268       0.93314537       0.18572578 </v>
   <v>       0.26670718       0.93304295       0.18497794 </v>
   <v>       0.46669809       0.93334904       0.18473282 </v>
   <v>       0.66665094       0.93334904       0.18473282 </v>
   <v>       0.86633577       0.93304295       0.18497794 </v>
   <v>       0.13365667       0.06731332       0.10736266 </v>
   <v>       0.33307735       0.06721178       0.10646984 </v>
   <v>       0.53315748       0.06684252       0.10579654 </v>
   <v>       0.73368505       0.06684252       0.10579654 </v>
   <v>       0.93413444       0.06721178       0.10646984 </v>
   <v>       0.13587821       0.26793909       0.11049310 </v>
   <v>       0.33206090       0.26793909       0.11049310 </v>
   <v>       0.53278822       0.26692264       0.10646984 </v>
   <v>       0.73336497       0.26672992       0.10563812 </v>
   <v>       0.93413444       0.26692264       0.10646984 </v>
   <v>       0.13365667       0.46634333       0.10736266 </v>
   <v>       0.33206090       0.46412179       0.11049310 </v>
   <v>       0.53268668       0.46634333       0.10736266 </v>
   <v>       0.73313685       0.46688060       0.10608299 </v>
   <v>       0.93374376       0.46688060       0.10608299 </v>
   <v>       0.13311940       0.66625623       0.10608299 </v>
   <v>       0.33307735       0.66586556       0.10646984 </v>
   <v>       0.53278822       0.66586556       0.10646984 </v>
   <v>       0.73313685       0.66625623       0.10608299 </v>
   <v>       0.93333334       0.66666666       0.10591188 </v>
   <v>       0.13311940       0.86686315       0.10608299 </v>
   <v>       0.33327008       0.86663503       0.10563812 </v>
   <v>       0.53315748       0.86631495       0.10579654 </v>
   <v>       0.73336497       0.86663503       0.10563812 </v>
   <v>       0.93374376       0.86686315       0.10608299 </v>
   <v>       0.13275046       0.06550091       0.26563548 </v>
   <v>       0.33381226       0.06467595       0.26489354 </v>
   <v>       0.53363171       0.06636828       0.26401756 </v>
   <v>       0.73273658       0.06636828       0.26401756 </v>
   <v>       0.93086371       0.06467595       0.26489354 </v>
   <v>       0.12128012       0.26064005       0.26991347 </v>
   <v>       0.33935995       0.26064005       0.26991347 </v>
   <v>       0.53532405       0.26618774       0.26489354 </v>
   <v>       0.73319680       0.26639358       0.26396704 </v>
   <v>       0.93086371       0.26618774       0.26489354 </v>
   <v>       0.13275046       0.46724953       0.26563548 </v>
   <v>       0.33935995       0.47871988       0.26991347 </v>
   <v>       0.53449909       0.46724953       0.26563548 </v>
   <v>       0.73376967       0.46656636       0.26427991 </v>
   <v>       0.93279671       0.46656636       0.26427991 </v>
   <v>       0.13343363       0.66720329       0.26427991 </v>
   <v>       0.33381226       0.66913629       0.26489354 </v>
   <v>       0.53532405       0.66913629       0.26489354 </v>
   <v>       0.73376967       0.66720329       0.26427991 </v>
   <v>       0.93333334       0.66666666       0.26408694 </v>
   <v>       0.13343363       0.86623033       0.26427991 </v>
   <v>       0.33360642       0.86680320       0.26396704 </v>
   <v>       0.53363171       0.86726341       0.26401756 </v>
   <v>       0.73319680       0.86680320       0.26396704 </v>
   <v>       0.93279671       0.86623033       0.26427991 </v>
   <v>       0.26666666       0.33333332       0.32845921 </v>
  </varray>
 </structure>
 <calculation>
  <scstep>
   <time name="dav">  187.88  188.33</time>
   <time name="total">  243.09  243.71</time>
   <energy>
    <i name="alphaZ">    724.79310432 </i>
    <i name="ewald"> 146151.60506348 </i>
    <i name="hartreedc">-199627.67326688 </i>
    <i name="XCdc">   2299.73145392 </i>
    <i name="pawpsdc">  49050.56298338 </i>
    <i name="pawaedc"> -48366.95294024 </i>
    <i name="eentropy">     -0.06298447 </i>
    <i name="bandstr">  -5958.03096157 </i>
    <i name="atom">  61277.49441763 </i>
    <i name="e_fr_energy">   5551.46686958 </i>
    <i name="e_wo_entrp">   5551.52985405 </i>
    <i name="e_0_energy">   5551.49836181 </i>
   </energy>
  </scstep>
  <scstep>
   <time name="dav">  200.49  200.96</time>
   <time name="total">  200.49  200.97</time>
   <energy>
    <i name="e_fr_energy">    147.03719394 </i>
    <i name="e_wo_entrp">    147.05541923 </i>
    <i name="e_0_energy">    147.04630659 </i>
   </energy>
  </scstep>
  <scstep>
   <time name="dav">  185.27  185.71</time>
   <time name="total">  185.28  185.72</time>
   <energy>
    <i name="e_fr_energy">   -403.64452987 </i>
    <i name="e_wo_entrp">   -403.61798141 </i>
    <i name="e_0_energy">   -403.63125564 </i>
   </energy>
  </scstep>
  <scstep>
   <time name="dav">  187.39  187.83</time>
   <time name="total">  187.39  187.84</time>
   <energy>
    <i name="e_fr_energy">   -421.48551861 </i>
    <i name="e_wo_entrp">   -421.45776072 </i>
    <i name="e_0_energy">   -421.47163967 </i>
   </energy>
  </scstep>
  <scstep>
   <time name="dav">  193.94  194.40</time>
   <time name="total">  193.99  194.45</time>
   <energy>
    <i name="e_fr_energy">   -422.03058265 </i>
    <i name="e_wo_entrp">   -422.00279001 </i>
    <i name="e_0_energy">   -422.01668633 </i>
   </energy>
  </scstep>
  <scstep>
   <time name="dav">  188.78  189.23</time>
   <time name="total">  188.82  189.27</time>
   <energy>
    <i name="e_fr_energy">   -422.05521422 </i>
    <i name="e_wo_entrp">   -422.02741575 </i>
    <i name="e_0_energy">   -422.04131498 </i>
   </energy>
  </scstep>
  <scstep>
   <time name="dav">  190.22  190.68</time>
   <time name="total">  190.24  190.70</time>
   <energy>
    <i name="e_fr_energy">   -422.05651261 </i>
    <i name="e_wo_entrp">   -422.02871366 </i>
    <i name="e_0_energy">   -422.04261314 </i>
   </energy>
  </scstep>
  <scstep>
   <time name="dav">  188.52  188.97</time>
   <time name="total">  188.53  188.98</time>
   <energy>
    <i name="e_fr_energy">   -422.05657240 </i>
    <i name="e_wo_entrp">   -422.02877342 </i>
    <i name="e_0_energy">   -422.04267291 </i>
   </energy>
  </scstep>
  <scstep>
   <time name="dav">  183.99  184.43</time>
   <time name="total">  184.00  184.44</time>
   <energy>
    <i name="e_fr_energy">   -422.05657570 </i>
    <i name="e_wo_entrp">   -422.02877671 </i>
    <i name="e_0_energy">   -422.04267620 </i>
   </energy>
  </scstep>
  <scstep>
   <time name="dav">  174.42  174.86</time>
   <time name="total">  195.30  195.79</time>
   <energy>
    <i name="e_fr_energy">   -422.05657588 </i>
    <i name="e_wo_entrp">   -422.02877690 </i>
    <i name="e_0_energy">   -422.04267639 </i>
   </energy>
  </scstep>
  <scstep>
   <time name="dav">  183.84  184.30</time>
   <time name="total">  262.28  262.92</time>
   <energy>
    <i name="e_fr_energy">   -389.38132826 </i>
    <i name="e_wo_entrp">   -389.35601256 </i>
    <i name="e_0_energy">   -389.36867041 </i>
   </energy>
  </scstep>
  <scstep>
   <time name="dav">  183.91  184.36</time>
   <time name="total">  262.19  262.82</time>
   <energy>
    <i name="e_fr_energy">   -392.92210649 </i>
    <i name="e_wo_entrp">   -392.92210649 </i>
    <i name="e_0_energy">   -392.92210649 </i>
   </energy>
  </scstep>
  <scstep>
   <time name="dav">  181.89  182.33</time>
   <time name="total">  260.64  261.27</time>
   <energy>
    <i name="e_fr_energy">   -391.26402784 </i>
    <i name="e_wo_entrp">   -391.25616747 </i>
    <i name="e_0_energy">   -391.26009765 </i>
   </energy>
  </scstep>
  <scstep>
   <time name="dav">  182.19  182.63</time>
   <time name="total">  260.36  260.98</time>
   <energy>
    <i name="e_fr_energy">   -394.37269162 </i>
    <i name="e_wo_entrp">   -394.37269075 </i>
    <i name="e_0_energy">   -394.37269118 </i>
   </energy>
  </scstep>
  <scstep>
   <time name="dav">  179.26  179.70</time>
   <time name="total">  258.05  258.68</time>
   <energy>
    <i name="e_fr_energy">   -396.25843495 </i>
    <i name="e_wo_entrp">   -396.25840454 </i>
    <i name="e_0_energy">   -396.25841974 </i>
   </energy>
  </scstep>
  <scstep>
   <time name="dav">  183.25  183.69</time>
   <time name="total">  262.45  263.08</time>
   <energy>
    <i name="e_fr_energy">   -398.62162705 </i>
    <i name="e_wo_entrp">   -398.61519818 </i>
    <i name="e_0_energy">   -398.61841261 </i>
   </energy>
  </scstep>
  <scstep>
   <time name="dav">  184.40  184.87</time>
   <time name="total">  262.65  263.31</time>
   <energy>
    <i name="e_fr_energy">   -400.67250773 </i>
    <i name="e_wo_entrp">   -400.67243521 </i>
    <i name="e_0_energy">   -400.67247147 </i>
   </energy>
  </scstep>
  <scstep>
   <time name="dav">  187.03  187.48</time>
   <time name="total">  266.24  266.88</time>
   <energy>
    <i name="e_fr_energy">   -401.47727992 </i>
    <i name="e_wo_entrp">   -401.47715228 </i>
    <i name="e_0_energy">   -401.47721610 </i>
   </energy>
  </scstep>
  <scstep>
   <time name="dav">  185.37  185.82</time>
   <time name="total">  264.11  264.75</time>
   <energy>
    <i name="e_fr_energy">   -401.64657344 </i>
    <i name="e_wo_entrp">   -401.64621974 </i>
    <i name="e_0_energy">   -401.64639659 </i>
   </energy>
  </scstep>
  <scstep>
   <time name="dav">  185.24  185.68</time>
   <time name="total">  263.91  264.54</time>
   <energy>
    <i name="e_fr_energy">   -401.68091047 </i>
    <i name="e_wo_entrp">   -401.68040492 </i>
    <i name="e_0_energy">   -401.68065769 </i>
   </energy>
  </scstep>
  <scstep>
   <time name="dav">  177.75  178.18</time>
   <time name="total">  256.60  257.21</time>
   <energy>
    <i name="e_fr_energy">   -401.68672482 </i>
    <i name="e_wo_entrp">   -401.68616473 </i>
    <i name="e_0_energy">   -401.68644478 </i>
   </energy>
  </scstep>
  <scstep>
   <time name="dav">  180.01  180.47</time>
   <time name="total">  258.51  259.15</time>
   <energy>
    <i name="e_fr_energy">   -401.68661001 </i>
    <i name="e_wo_entrp">   -401.68601459 </i>
    <i name="e_0_energy">   -401.68631230 </i>
   </energy>
  </scstep>
  <scstep>
   <time name="dav">  179.49  179.92</time>
   <time name="total">  258.27  258.89</time>
   <energy>
    <i name="e_fr_energy">   -401.68648093 </i>
    <i name="e_wo_entrp">   -401.68586716 </i>
    <i name="e_0_energy">   -401.68617405 </i>
   </energy>
  </scstep>
  <scstep>
   <time name="dav">  182.52  182.96</time>
   <time name="total">  261.39  262.02</time>
   <energy>
    <i name="e_fr_energy">   -401.68545755 </i>
    <i name="e_wo_entrp">   -401.68483233 </i>
    <i name="e_0_energy">   -401.68514494 </i>
   </energy>
  </scstep>
  <scstep>
   <time name="dav">  189.70  190.17</time>
   <time name="total">  268.29  268.96</time>
   <energy>
    <i name="e_fr_energy">   -401.68530781 </i>
    <i name="e_wo_entrp">   -401.68468572 </i>
    <i name="e_0_energy">   -401.68499676 </i>
   </energy>
  </scstep>
  <scstep>
   <time name="dav">  182.78  183.22</time>
   <time name="total">  261.90  262.53</time>
   <energy>
    <i name="e_fr_energy">   -401.68603979 </i>
    <i name="e_wo_entrp">   -401.68542353 </i>
    <i name="e_0_energy">   -401.68573166 </i>
   </energy>
  </scstep>
  <scstep>
   <time name="dav">  188.05  188.51</time>
   <time name="total">  266.52  267.16</time>
   <energy>
    <i name="e_fr_energy">   -401.68676134 </i>
    <i name="e_wo_entrp">   -401.68614379 </i>
    <i name="e_0_energy">   -401.68645256 </i>
   </energy>
  </scstep>
  <scstep>
   <time name="dav">  191.39  191.88</time>
   <time name="total">  269.48  270.17</time>
   <energy>
    <i name="e_fr_energy">   -401.68735186 </i>
    <i name="e_wo_entrp">   -401.68673279 </i>
    <i name="e_0_energy">   -401.68704232 </i>
   </energy>
  </scstep>
  <scstep>
   <time name="dav">  193.62  194.09</time>
   <time name="total">  272.89  273.55</time>
   <energy>
    <i name="e_fr_energy">   -401.68803156 </i>
    <i name="e_wo_entrp">   -401.68741422 </i>
    <i name="e_0_energy">   -401.68772289 </i>
   </energy>
  </scstep>
  <scstep>
   <time name="dav">  201.39  201.88</time>
   <time name="total">  280.26  280.94</time>
   <energy>
    <i name="e_fr_energy">   -401.68843516 </i>
    <i name="e_wo_entrp">   -401.68781626 </i>
    <i name="e_0_energy">   -401.68812571 </i>
   </energy>
  </scstep>
  <scstep>
   <time name="dav">  193.40  193.87</time>
   <time name="total">  272.16  272.81</time>
   <energy>
    <i name="e_fr_energy">   -401.68865606 </i>
    <i name="e_wo_entrp">   -401.68803720 </i>
    <i name="e_0_energy">   -401.68834663 </i>
   </energy>
  </scstep>
  <scstep>
   <time name="dav">  183.25  183.68</time>
   <time name="total">  262.28  262.91</time>
   <energy>
    <i name="e_fr_energy">   -401.68883155 </i>
    <i name="e_wo_entrp">   -401.68821284 </i>
    <i name="e_0_energy">   -401.68852220 </i>
   </energy>
  </scstep>
  <scstep>
   <time name="dav">  181.01  181.48</time>
   <time name="total">  259.00  259.66</time>
   <energy>
    <i name="e_fr_energy">   -401.68893027 </i>
    <i name="e_wo_entrp">   -401.68831129 </i>
    <i name="e_0_energy">   -401.68862078 </i>
   </energy>
  </scstep>
  <scstep>
   <time name="dav">  178.55  178.99</time>
   <time name="total">  256.83  257.46</time>
   <energy>
    <i name="e_fr_energy">   -401.68901175 </i>
    <i name="e_wo_entrp">   -401.68839237 </i>
    <i name="e_0_energy">   -401.68870206 </i>
   </energy>
  </scstep>
  <scstep>
   <time name="dav">  177.31  177.73</time>
   <time name="total">  255.96  256.57</time>
   <energy>
    <i name="e_fr_energy">   -401.68904956 </i>
    <i name="e_wo_entrp">   -401.68843008 </i>
    <i name="e_0_energy">   -401.68873982 </i>
   </energy>
  </scstep>
  <scstep>
   <time name="dav">  174.64  175.10</time>
   <time name="total">  253.68  254.34</time>
   <energy>
    <i name="e_fr_energy">   -401.68907829 </i>
    <i name="e_wo_entrp">   -401.68845873 </i>
    <i name="e_0_energy">   -401.68876851 </i>
   </energy>
  </scstep>
  <scstep>
   <time name="dav">  174.32  174.74</time>
   <time name="total">  253.47  254.08</time>
   <energy>
    <i name="e_fr_energy">   -401.68910012 </i>
    <i name="e_wo_entrp">   -401.68848037 </i>
    <i name="e_0_energy">   -401.68879025 </i>
   </energy>
  </scstep>
  <scstep>
   <time name="dav">  169.42  169.82</time>
   <time name="total">  247.43  248.02</time>
   <energy>
    <i name="e_fr_energy">   -401.68910570 </i>
    <i name="e_wo_entrp">   -401.68848589 </i>
    <i name="e_0_energy">   -401.68879580 </i>
   </energy>
  </scstep>
  <scstep>
   <time name="dav">  166.15  166.55</time>
   <time name="total">  244.82  245.41</time>
   <energy>
    <i name="e_fr_energy">   -401.68910725 </i>
    <i name="e_wo_entrp">   -401.68848742 </i>
    <i name="e_0_energy">   -401.68879734 </i>
   </energy>
  </scstep>
  <scstep>
   <time name="dav">  163.10  163.49</time>
   <time name="total">  242.35  242.93</time>
   <energy>
    <i name="e_fr_energy">   -401.68910915 </i>
    <i name="e_wo_entrp">   -401.68848936 </i>
    <i name="e_0_energy">   -401.68879926 </i>
   </energy>
  </scstep>
  <scstep>
   <time name="dav">  158.52  158.92</time>
   <time name="total">  237.08  237.67</time>
   <energy>
    <i name="e_fr_energy">   -401.68910897 </i>
    <i name="e_wo_entrp">   -401.68848915 </i>
    <i name="e_0_energy">   -401.68879906 </i>
   </energy>
  </scstep>
  <scstep>
   <time name="dav">  158.32  158.70</time>
   <time name="total">  237.20  237.77</time>
   <energy>
    <i name="e_fr_energy">   -401.68910909 </i>
    <i name="e_wo_entrp">   -401.68848924 </i>
    <i name="e_0_energy">   -401.68879917 </i>
   </energy>
  </scstep>
  <scstep>
   <time name="dav">  156.17  156.55</time>
   <time name="total">  234.65  235.21</time>
   <energy>
    <i name="e_fr_energy">   -401.68910942 </i>
    <i name="e_wo_entrp">   -401.68848955 </i>
    <i name="e_0_energy">   -401.68879949 </i>
   </energy>
  </scstep>
  <scstep>
   <time name="dav">  157.28  157.65</time>
   <time name="total">  236.15  236.71</time>
   <energy>
    <i name="e_fr_energy">   -401.68910999 </i>
    <i name="e_wo_entrp">   -401.68849008 </i>
    <i name="e_0_energy">   -401.68880004 </i>
   </energy>
  </scstep>
  <scstep>
   <time name="dav">  161.46  161.86</time>
   <time name="total">  240.51  241.10</time>
   <energy>
    <i name="e_fr_energy">   -401.68911092 </i>
    <i name="e_wo_entrp">   -401.68849098 </i>
    <i name="e_0_energy">   -401.68880095 </i>
   </energy>
  </scstep>
  <scstep>
   <time name="dav">  162.23  162.62</time>
   <time name="total">  241.17  241.75</time>
   <energy>
    <i name="e_fr_energy">   -401.68911214 </i>
    <i name="e_wo_entrp">   -401.68849216 </i>
    <i name="e_0_energy">   -401.68880215 </i>
   </energy>
  </scstep>
  <scstep>
   <time name="dav">  161.20  161.58</time>
   <time name="total">  239.38  239.96</time>
   <energy>
    <i name="e_fr_energy">   -401.68911275 </i>
    <i name="e_wo_entrp">   -401.68849275 </i>
    <i name="e_0_energy">   -401.68880275 </i>
   </energy>
  </scstep>
  <scstep>
   <time name="dav">  153.08  153.45</time>
   <time name="total">  211.25  211.76</time>
   <energy>
    <i name="alphaZ">    724.79310432 </i>
    <i name="ewald"> 146151.60506348 </i>
    <i name="hartreedc">-199923.33468094 </i>
    <i name="XCdc">   2283.24800875 </i>
    <i name="pawpsdc">  76071.49861712 </i>
    <i name="pawaedc"> -75487.22381623 </i>
    <i name="eentropy">     -0.00062001 </i>
    <i name="bandstr"> -11499.76920698 </i>
    <i name="atom">  61277.49441763 </i>
    <i name="e_fr_energy">   -401.68911285 </i>
    <i name="e_wo_entrp">   -401.68849284 </i>
    <i name="e_0_energy">   -401.68880284 </i>
   </energy>
  </scstep>
  <structure>
   <crystal>
    <varray name="basis" >
     <v>      15.62500000       0.00000000       0.00000000 </v>
     <v>      -7.81250000      13.53164693       0.00000000 </v>
     <v>       0.00000000       0.00000000      20.00000000 </v>
    </varray>
    <i name="volume">   4228.63966688 </i>
    <varray name="rec_basis" >
     <v>       0.06400000       0.03695042      -0.00000000 </v>
     <v>       0.00000000       0.07390083       0.00000000 </v>
     <v>       0.00000000      -0.00000000       0.05000000 </v>
    </varray>
   </crystal>
   <varray name="positions" >
    <v>       0.06554800       0.13197288       0.18701292 </v>
    <v>       0.26642488       0.13197288       0.18701292 </v>
    <v>       0.46680018       0.13319980       0.18539957 </v>
    <v>       0.66665094       0.13330188       0.18473282 </v>
    <v>       0.86639962       0.13319980       0.18539957 </v>
    <v>       0.06554800       0.33357510       0.18701292 </v>
    <v>       0.26666666       0.33333332       0.19060606 </v>
    <v>       0.46802710       0.33357510       0.18701292 </v>
    <v>       0.66695703       0.33329280       0.18497794 </v>
    <v>       0.86633577       0.33329280       0.18497794 </v>
    <v>       0.06657268       0.53342729       0.18572578 </v>
    <v>       0.26642488       0.53445198       0.18701292 </v>
    <v>       0.46802710       0.53445198       0.18701292 </v>
    <v>       0.66685461       0.53342729       0.18572578 </v>
    <v>       0.86668917       0.53337834       0.18504086 </v>
    <v>       0.06662164       0.73331081       0.18504086 </v>
    <v>       0.26670718       0.73366421       0.18497794 </v>
    <v>       0.46680018       0.73360036       0.18539957 </v>
    <v>       0.66695703       0.73366421       0.18497794 </v>
    <v>       0.86668917       0.73331081       0.18504086 </v>
    <v>       0.06657268       0.93314537       0.18572578 </v>
    <v>       0.26670718       0.93304295       0.18497794 </v>
    <v>       0.46669809       0.93334904       0.18473282 </v>
    <v>       0.66665094       0.93334904       0.18473282 </v>
    <v>       0.86633577       0.93304295       0.18497794 </v>
    <v>       0.13365667       0.06731332       0.10736266 </v>
    <v>       0.33307735       0.06721178       0.10646984 </v>
    <v>       0.53315748       0.06684252       0.10579654 </v>
    <v>       0.73368505       0.06684252       0.10579654 </v>
    <v>       0.93413444       0.06721178       0.10646984 </v>
    <v>       0.13587821       0.26793909       0.11049310 </v>
    <v>       0.33206090       0.26793909       0.11049310 </v>
    <v>       0.53278822       0.26692264       0.10646984 </v>
    <v>       0.73336497       0.26672992       0.10563812 </v>
    <v>       0.93413444       0.26692264       0.10646984 </v>
    <v>       0.13365667       0.46634333       0.10736266 </v>
    <v>       0.33206090       0.46412179       0.11049310 </v>
    <v>       0.53268668       0.46634333       0.10736266 </v>
    <v>       0.73313685       0.46688060       0.10608299 </v>
    <v>       0.93374376       0.46688060       0.10608299 </v>
    <v>       0.13311940       0.66625623       0.10608299 </v>
    <v>       0.33307735       0.66586556       0.10646984 </v>
    <v>       0.53278822       0.66586556       0.10646984 </v>
    <v>       0.73313685       0.66625623       0.10608299 </v>
    <v>       0.93333334       0.66666666       0.10591188 </v>
    <v>       0.13311940       0.86686315       0.10608299 </v>
    <v>       0.33327008       0.86663503       0.10563812 </v>
    <v>       0.53315748       0.86631495       0.10579654 </v>
    <v>       0.73336497       0.86663503       0.10563812 </v>
    <v>       0.93374376       0.86686315       0.10608299 </v>
    <v>       0.13275046       0.06550091       0.26563548 </v>
    <v>       0.33381226       0.06467595       0.26489354 </v>
    <v>       0.53363171       0.06636828       0.26401756 </v>
    <v>       0.73273658       0.06636828       0.26401756 </v>
    <v>       0.93086371       0.06467595       0.26489354 </v>
    <v>       0.12128012       0.26064005       0.26991347 </v>
    <v>       0.33935995       0.26064005       0.26991347 </v>
    <v>       0.53532405       0.26618774       0.26489354 </v>
    <v>       0.73319680       0.26639358       0.26396704 </v>
    <v>       0.93086371       0.26618774       0.26489354 </v>
    <v>       0.13275046       0.46724953       0.26563548 </v>
    <v>       0.33935995       0.47871988       0.26991347 </v>
    <v>       0.53449909       0.46724953       0.26563548 </v>
    <v>       0.73376967       0.46656636       0.26427991 </v>
    <v>       0.93279671       0.46656636       0.26427991 </v>
    <v>       0.13343363       0.66720329       0.26427991 </v>
    <v>       0.33381226       0.66913629       0.26489354 </v>
    <v>       0.53532405       0.66913629       0.26489354 </v>
    <v>       0.73376967       0.66720329       0.26427991 </v>
    <v>       0.93333334       0.66666666       0.26408694 </v>
    <v>       0.13343363       0.86623033       0.26427991 </v>
    <v>       0.33360642       0.86680320       0.26396704 </v>
    <v>       0.53363171       0.86726341       0.26401756 </v>
    <v>       0.73319680       0.86680320       0.26396704 </v>
    <v>       0.93279671       0.86623033       0.26427991 </v>
    <v>       0.26666666       0.33333332       0.32845921 </v>
   </varray>
  </structure>
  <varray name="forces" >
   <v>      -0.07605189       0.06583741      -0.16116893 </v>
   <v>       0.07605189       0.06583741      -0.16116893 </v>
   <v>       0.01342669      -0.00775190      -0.01952125 </v>
   <v>       0.00000000      -0.02396274      -0.00506647 </v>
   <v>      -0.01342669      -0.00775190      -0.01952125 </v>
   <v>       0.01899092      -0.09878157      -0.16116893 </v>
   <v>       0.00000000       0.00000000      -0.27861293 </v>
   <v>      -0.01899092      -0.09878157      -0.16116893 </v>
   <v>       0.05305038       0.00182502      -0.02605630 </v>
   <v>      -0.05305038       0.00182502      -0.02605630 </v>
   <v>      -0.07224081       0.04170825      -0.10940080 </v>
   <v>       0.09504281       0.03294417      -0.16116893 </v>
   <v>      -0.09504281       0.03294417      -0.16116893 </v>
   <v>       0.07224081       0.04170825      -0.10940080 </v>
   <v>      -0.00000000      -0.00367653      -0.01714194 </v>
   <v>       0.00318397       0.00183827      -0.01714194 </v>
   <v>      -0.02810570       0.04503046      -0.02605630 </v>
   <v>       0.00000000       0.01550381      -0.01952125 </v>
   <v>       0.02810570       0.04503046      -0.02605630 </v>
   <v>      -0.00318397       0.00183827      -0.01714194 </v>
   <v>       0.00000000      -0.08341650      -0.10940080 </v>
   <v>       0.02494468      -0.04685548      -0.02605630 </v>
   <v>       0.02075234       0.01198137      -0.00506647 </v>
   <v>      -0.02075234       0.01198137      -0.00506647 </v>
   <v>      -0.02494468      -0.04685548      -0.02605630 </v>
   <v>       0.00000000       0.00103442      -0.00195006 </v>
   <v>      -0.01126921      -0.00270437       0.00325504 </v>
   <v>      -0.00319407       0.00184410      -0.00101415 </v>
   <v>       0.00319407       0.00184410      -0.00101415 </v>
   <v>       0.01126921      -0.00270437       0.00325504 </v>
   <v>       0.00690666       0.00398756      -0.05425638 </v>
   <v>      -0.00690666       0.00398756      -0.05425638 </v>
   <v>      -0.00329255       0.01111160       0.00325504 </v>
   <v>      -0.00000000       0.00223957       0.00924036 </v>
   <v>       0.00329255       0.01111160       0.00325504 </v>
   <v>       0.00089584      -0.00051721      -0.00195006 </v>
   <v>      -0.00000000      -0.00797513      -0.05425638 </v>
   <v>      -0.00089584      -0.00051721      -0.00195006 </v>
   <v>      -0.01512005       0.00172173       0.01690339 </v>
   <v>       0.01512005       0.00172173       0.01690339 </v>
   <v>       0.00606896      -0.01395522       0.01690339 </v>
   <v>      -0.00797666      -0.00840724       0.00325504 </v>
   <v>       0.00797666      -0.00840724       0.00325504 </v>
   <v>      -0.00606896      -0.01395522       0.01690339 </v>
   <v>      -0.00000000       0.00000000       0.00137087 </v>
   <v>      -0.00905109       0.01223348       0.01690339 </v>
   <v>      -0.00193952      -0.00111978       0.00924036 </v>
   <v>       0.00000000      -0.00368820      -0.00101415 </v>
   <v>       0.00193952      -0.00111978       0.00924036 </v>
   <v>       0.00905109       0.01223348       0.01690339 </v>
   <v>       0.00000000       0.00146052       0.13350326 </v>
   <v>       0.00737071       0.02911041       0.03976230 </v>
   <v>      -0.00951318       0.00549243       0.00772438 </v>
   <v>       0.00951318       0.00549243       0.00772438 </v>
   <v>      -0.00737071       0.02911041       0.03976230 </v>
   <v>       0.22551236       0.13019962       0.17689641 </v>
   <v>      -0.22551236       0.13019962       0.17689641 </v>
   <v>      -0.02152500      -0.02093843       0.03976230 </v>
   <v>       0.00000000      -0.00401943       0.00562394 </v>
   <v>       0.02152500      -0.02093843       0.03976230 </v>
   <v>       0.00126484      -0.00073026       0.13350326 </v>
   <v>       0.00000000      -0.26039924       0.17689641 </v>
   <v>      -0.00126484      -0.00073026       0.13350326 </v>
   <v>      -0.01843770       0.01032531       0.01454220 </v>
   <v>       0.01843770       0.01032531       0.01454220 </v>
   <v>       0.00027687      -0.02113017       0.01454220 </v>
   <v>       0.02889571      -0.00817198       0.03976230 </v>
   <v>      -0.02889571      -0.00817198       0.03976230 </v>
   <v>      -0.00027687      -0.02113017       0.01454220 </v>
   <v>       0.00000000       0.00000000       0.00545077 </v>
   <v>      -0.01816083       0.01080486       0.01454220 </v>
   <v>       0.00348093       0.00200971       0.00562394 </v>
   <v>      -0.00000000      -0.01098487       0.00772438 </v>
   <v>      -0.00348093       0.00200971       0.00562394 </v>
   <v>       0.01816083       0.01080486       0.01454220 </v>
   <v>       0.00000000       0.00000000       0.57445322 </v>
  </varray>
  <varray name="stress" >
   <v>      13.97994429      -0.00000000      -0.00000000 </v>
   <v>      -0.00000000      13.97994429      -0.00000000 </v>
   <v>       0.00000000       0.00000000       2.44683958 </v>
  </varray>
  <energy>
   <i name="e_fr_energy">   -401.68911285 </i>
   <i name="e_wo_entrp">   -401.68880284 </i>
   <i name="e_0_energy">     -0.00062001 </i>
  </energy>
  <time name="totalsc">12027.2912056.83</time>
 </calculation>
 <calculation>
  <scstep>
   <time name="dav">  176.17  176.61</time>
   <time name="total">  255.83  256.46</time>
   <energy>
    <i name="alphaZ">    724.79310432 </i>
    <i name="ewald"> 146123.69213485 </i>
    <i name="hartreedc">-199895.90687746 </i>
    <i name="XCdc">   2283.18929388 </i>
    <i name="pawpsdc">  76071.49871854 </i>
    <i name="pawaedc"> -75487.22391785 </i>
    <i name="eentropy">     -0.00049957 </i>
    <i name="bandstr"> -11499.23483621 </i>
    <i name="atom">  61277.49441763 </i>
    <i name="e_fr_energy">   -401.69846187 </i>
    <i name="e_wo_entrp">   -401.69796230 </i>
    <i name="e_0_energy">   -401.69821208 </i>
   </energy>
  </scstep>
  <scstep>
   <time name="dav">  185.58  186.04</time>
   <time name="total">  263.96  264.60</time>
   <energy>
    <i name="e_fr_energy">   -401.70066341 </i>
    <i name="e_wo_entrp">   -401.70017989 </i>
    <i name="e_0_energy">   -401.70042165 </i>
   </energy>
  </scstep>
  <scstep>
   <time name="dav">  191.83  192.30</time>
   <time name="total">  269.96  270.61</time>
   <energy>
    <i name="e_fr_energy">   -401.70061626 </i>
    <i name="e_wo_entrp">   -401.70014804 </i>
    <i name="e_0_energy">   -401.70038215 </i>
   </energy>
  </scstep>
  <scstep>
   <time name="dav">  186.34  186.80</time>
   <time name="total">  265.23  265.90</time>
   <energy>
    <i name="e_fr_energy">   -401.70062136 </i>
    <i name="e_wo_entrp">   -401.70014854 </i>
    <i name="e_0_energy">   -401.70038495 </i>
   </energy>
  </scstep>
  <scstep>
   <time name="dav">  187.67  188.13</time>
   <time name="total">  266.49  267.13</time>
   <energy>
    <i name="e_fr_energy">   -401.70059714 </i>
    <i name="e_wo_entrp">   -401.70013517 </i>
    <i name="e_0_energy">   -401.70036615 </i>
   </energy>
  </scstep>
  <scstep>
   <time name="dav">  187.37  187.83</time>
   <time name="total">  266.42  267.07</time>
   <energy>
    <i name="e_fr_energy">   -401.70059947 </i>
    <i name="e_wo_entrp">   -401.70013614 </i>
    <i name="e_0_energy">   -401.70036780 </i>
   </energy>
  </scstep>
  <scstep>
   <time name="dav">  186.55  187.00</time>
   <time name="total">  265.09  265.73</time>
   <energy>
    <i name="e_fr_energy">   -401.70059945 </i>
    <i name="e_wo_entrp">   -401.70013647 </i>
    <i name="e_0_energy">   -401.70036796 </i>
   </energy>
  </scstep>
  <scstep>
   <time name="dav">  182.14  182.58</time>
   <time name="total">  260.60  261.23</time>
   <energy>
    <i name="e_fr_energy">   -401.70059924 </i>
    <i name="e_wo_entrp">   -401.70013564 </i>
    <i name="e_0_energy">   -401.70036744 </i>
   </energy>
  </scstep>
  <scstep>
   <time name="dav">  182.32  182.76</time>
   <time name="total">  261.60  262.23</time>
   <energy>
    <i name="e_fr_energy">   -401.70059988 </i>
    <i name="e_wo_entrp">   -401.70013578 </i>
    <i name="e_0_energy">   -401.70036783 </i>
   </energy>
  </scstep>
  <scstep>
   <time name="dav">  163.87  164.26</time>
   <time name="total">  243.45  244.04</time>
   <energy>
    <i name="e_fr_energy">   -401.70060070 </i>
    <i name="e_wo_entrp">   -401.70013654 </i>
    <i name="e_0_energy">   -401.70036862 </i>
   </energy>
  </scstep>
  <scstep>
   <time name="dav">  162.08  162.48</time>
   <time name="total">  240.70  241.29</time>
   <energy>
    <i name="e_fr_energy">   -401.70060201 </i>
    <i name="e_wo_entrp">   -401.70013786 </i>
    <i name="e_0_energy">   -401.70036994 </i>
   </energy>
  </scstep>
  <scstep>
   <time name="dav">  162.35  162.74</time>
   <time name="total">  241.27  241.85</time>
   <energy>
    <i name="e_fr_energy">   -401.70060336 </i>
    <i name="e_wo_entrp">   -401.70013915 </i>
    <i name="e_0_energy">   -401.70037126 </i>
   </energy>
  </scstep>
  <scstep>
   <time name="dav">  157.47  157.85</time>
   <time name="total">  236.22  236.78</time>
   <energy>
    <i name="e_fr_energy">   -401.70060416 </i>
    <i name="e_wo_entrp">   -401.70013998 </i>
    <i name="e_0_energy">   -401.70037207 </i>
   </energy>
  </scstep>
  <scstep>
   <time name="dav">  158.75  159.14</time>
   <time name="total">  237.71  238.28</time>
   <energy>
    <i name="e_fr_energy">   -401.70060482 </i>
    <i name="e_wo_entrp">   -401.70014062 </i>
    <i name="e_0_energy">   -401.70037272 </i>
   </energy>
  </scstep>
  <scstep>
   <time name="dav">  158.78  159.16</time>
   <time name="total">  237.47  238.05</time>
   <energy>
    <i name="e_fr_energy">   -401.70060537 </i>
    <i name="e_wo_entrp">   -401.70014116 </i>
    <i name="e_0_energy">   -401.70037326 </i>
   </energy>
  </scstep>
  <scstep>
   <time name="dav">  161.15  161.54</time>
   <time name="total">  239.44  240.02</time>
   <energy>
    <i name="e_fr_energy">   -401.70060583 </i>
    <i name="e_wo_entrp">   -401.70014161 </i>
    <i name="e_0_energy">   -401.70037372 </i>
   </energy>
  </scstep>
  <scstep>
   <time name="dav">  161.08  161.47</time>
   <time name="total">  240.44  241.02</time>
   <energy>
    <i name="e_fr_energy">   -401.70060638 </i>
    <i name="e_wo_entrp">   -401.70014214 </i>
    <i name="e_0_energy">   -401.70037426 </i>
   </energy>
  </scstep>
  <scstep>
   <time name="dav">  158.21  158.58</time>
   <time name="total">  237.29  237.86</time>
   <energy>
    <i name="e_fr_energy">   -401.70060663 </i>
    <i name="e_wo_entrp">   -401.70014237 </i>
    <i name="e_0_energy">   -401.70037450 </i>
   </energy>
  </scstep>
  <scstep>
   <time name="dav">  158.84  159.22</time>
   <time name="total">  237.14  237.71</time>
   <energy>
    <i name="e_fr_energy">   -401.70060688 </i>
    <i name="e_wo_entrp">   -401.70014262 </i>
    <i name="e_0_energy">   -401.70037475 </i>
   </energy>
  </scstep>
  <scstep>
   <time name="dav">  158.82  159.20</time>
   <time name="total">  217.27  217.81</time>
   <energy>
    <i name="alphaZ">    724.79310432 </i>
    <i name="ewald"> 146123.69213485 </i>
    <i name="hartreedc">-199895.92647841 </i>
    <i name="XCdc">   2283.18923981 </i>
    <i name="pawpsdc">  76051.72621741 </i>
    <i name="pawaedc"> -75467.42585096 </i>
    <i name="eentropy">     -0.00046426 </i>
    <i name="bandstr"> -11499.24292727 </i>
    <i name="atom">  61277.49441763 </i>
    <i name="e_fr_energy">   -401.70060687 </i>
    <i name="e_wo_entrp">   -401.70014262 </i>
    <i name="e_0_energy">   -401.70037475 </i>
   </energy>
  </scstep>
  <structure>
   <crystal>
    <varray name="basis" >
     <v>      15.62500000       0.00000000       0.00000000 </v>
     <v>      -7.81250000      13.53164693       0.00000000 </v>
     <v>       0.00000000       0.00000000      20.00000000 </v>
    </varray>
    <i name="volume">   4228.63966688 </i>
    <varray name="rec_basis" >
     <v>       0.06400000       0.03695042      -0.00000000 </v>
     <v>       0.00000000       0.07390083       0.00000000 </v>
     <v>       0.00000000      -0.00000000       0.05000000 </v>
    </varray>
   </crystal>
   <varray name="positions" >
    <v>       0.06551864       0.13203156       0.18691573 </v>
    <v>       0.26651292       0.13203156       0.18691573 </v>
    <v>       0.46680709       0.13319289       0.18538779 </v>
    <v>       0.66664026       0.13328053       0.18472976 </v>
    <v>       0.86638580       0.13319289       0.18538779 </v>
    <v>       0.06551864       0.33348706       0.18691573 </v>
    <v>       0.26666666       0.33333332       0.19043805 </v>
    <v>       0.46796842       0.33348706       0.18691573 </v>
    <v>       0.66699879       0.33329443       0.18496222 </v>
    <v>       0.86629563       0.33329443       0.18496222 </v>
    <v>       0.06653551       0.53346447       0.18565981 </v>
    <v>       0.26651292       0.53448134       0.18691573 </v>
    <v>       0.46796842       0.53448134       0.18691573 </v>
    <v>       0.66692896       0.53346447       0.18565981 </v>
    <v>       0.86668753       0.53337507       0.18503052 </v>
    <v>       0.06662491       0.73331245       0.18503052 </v>
    <v>       0.26670555       0.73370435       0.18496222 </v>
    <v>       0.46680709       0.73361418       0.18538779 </v>
    <v>       0.66699879       0.73370435       0.18496222 </v>
    <v>       0.86668753       0.73331245       0.18503052 </v>
    <v>       0.06653551       0.93307102       0.18565981 </v>
    <v>       0.26670555       0.93300119       0.18496222 </v>
    <v>       0.46671945       0.93335972       0.18472976 </v>
    <v>       0.66664026       0.93335972       0.18472976 </v>
    <v>       0.86629563       0.93300119       0.18496222 </v>
    <v>       0.13365713       0.06731424       0.10736149 </v>
    <v>       0.33306745       0.06720937       0.10647180 </v>
    <v>       0.53315584       0.06684416       0.10579593 </v>
    <v>       0.73368834       0.06684416       0.10579593 </v>
    <v>       0.93414193       0.06720937       0.10647180 </v>
    <v>       0.13588531       0.26794265       0.11046039 </v>
    <v>       0.33205735       0.26794265       0.11046039 </v>
    <v>       0.53279063       0.26693255       0.10647180 </v>
    <v>       0.73336596       0.26673191       0.10564369 </v>
    <v>       0.93414193       0.26693255       0.10647180 </v>
    <v>       0.13365713       0.46634287       0.10736149 </v>
    <v>       0.33205735       0.46411468       0.11046039 </v>
    <v>       0.53268576       0.46634287       0.10736149 </v>
    <v>       0.73312595       0.46688214       0.10609318 </v>
    <v>       0.93375620       0.46688214       0.10609318 </v>
    <v>       0.13311786       0.66624379       0.10609318 </v>
    <v>       0.33306745       0.66585807       0.10647180 </v>
    <v>       0.53279063       0.66585807       0.10647180 </v>
    <v>       0.73312595       0.66624379       0.10609318 </v>
    <v>       0.93333334       0.66666666       0.10591271 </v>
    <v>       0.13311786       0.86687405       0.10609318 </v>
    <v>       0.33326808       0.86663403       0.10564369 </v>
    <v>       0.53315584       0.86631166       0.10579593 </v>
    <v>       0.73336596       0.86663403       0.10564369 </v>
    <v>       0.93375620       0.86687405       0.10609318 </v>
    <v>       0.13275111       0.06550221       0.26571598 </v>
    <v>       0.33383092       0.06470189       0.26491752 </v>
    <v>       0.53362682       0.06637318       0.26402221 </v>
    <v>       0.73274637       0.06637318       0.26402221 </v>
    <v>       0.93087099       0.06470189       0.26491752 </v>
    <v>       0.12151221       0.26075610       0.27002015 </v>
    <v>       0.33924390       0.26075610       0.27002015 </v>
    <v>       0.53529810       0.26616908       0.26491752 </v>
    <v>       0.73319501       0.26639000       0.26397043 </v>
    <v>       0.93087099       0.26616908       0.26491752 </v>
    <v>       0.13275111       0.46724888       0.26571598 </v>
    <v>       0.33924390       0.47848778       0.27002015 </v>
    <v>       0.53449779       0.46724888       0.26571598 </v>
    <v>       0.73376004       0.46657557       0.26428868 </v>
    <v>       0.93281554       0.46657557       0.26428868 </v>
    <v>       0.13342443       0.66718445       0.26428868 </v>
    <v>       0.33383092       0.66912901       0.26491752 </v>
    <v>       0.53529810       0.66912901       0.26491752 </v>
    <v>       0.73376004       0.66718445       0.26428868 </v>
    <v>       0.93333334       0.66666666       0.26409023 </v>
    <v>       0.13342443       0.86623996       0.26428868 </v>
    <v>       0.33361000       0.86680499       0.26397043 </v>
    <v>       0.53362682       0.86725362       0.26402221 </v>
    <v>       0.73319501       0.86680499       0.26397043 </v>
    <v>       0.93281554       0.86623996       0.26428868 </v>
    <v>       0.26666666       0.33333332       0.32880563 </v>
   </varray>
  </structure>
  <varray name="forces" >
   <v>      -0.04377331       0.05577314      -0.08566277 </v>
   <v>       0.04377331       0.05577314      -0.08566277 </v>
   <v>       0.01227726      -0.00708828      -0.00787281 </v>
   <v>       0.00000000      -0.01526384      -0.00110585 </v>
   <v>      -0.01227726      -0.00708828      -0.00787281 </v>
   <v>       0.02641431      -0.06579537      -0.08566277 </v>
   <v>       0.00000000       0.00000000      -0.16424764 </v>
   <v>      -0.02641431      -0.06579537      -0.08566277 </v>
   <v>       0.02875895       0.00037591      -0.00767922 </v>
   <v>      -0.02875895       0.00037591      -0.00767922 </v>
   <v>      -0.04192157       0.02420343      -0.06064876 </v>
   <v>       0.07018762       0.01002223      -0.08566277 </v>
   <v>      -0.07018762       0.01002223      -0.08566277 </v>
   <v>       0.04192157       0.02420343      -0.06064876 </v>
   <v>       0.00000000      -0.00236469      -0.00512736 </v>
   <v>       0.00204788       0.00118235      -0.00512736 </v>
   <v>      -0.01470502       0.02471803      -0.00767922 </v>
   <v>       0.00000000       0.01417656      -0.00787281 </v>
   <v>       0.01470502       0.02471803      -0.00767922 </v>
   <v>      -0.00204788       0.00118235      -0.00512736 </v>
   <v>       0.00000000      -0.04840685      -0.06064876 </v>
   <v>       0.01405393      -0.02509393      -0.00767922 </v>
   <v>       0.01321888       0.00763192      -0.00110585 </v>
   <v>      -0.01321888       0.00763192      -0.00110585 </v>
   <v>      -0.01405393      -0.02509393      -0.00767922 </v>
   <v>       0.00000000      -0.00099929      -0.00969350 </v>
   <v>      -0.00157266      -0.00764932      -0.00806137 </v>
   <v>      -0.00175980       0.00101602      -0.00414635 </v>
   <v>       0.00175980       0.00101602      -0.00414635 </v>
   <v>       0.00157266      -0.00764932      -0.00806137 </v>
   <v>      -0.00289819      -0.00167327      -0.08014991 </v>
   <v>       0.00289819      -0.00167327      -0.08014991 </v>
   <v>       0.00583817       0.00518662      -0.00806137 </v>
   <v>       0.00000000      -0.00227730       0.00112191 </v>
   <v>      -0.00583817       0.00518662      -0.00806137 </v>
   <v>      -0.00086541       0.00049964      -0.00969350 </v>
   <v>       0.00000000       0.00334654      -0.08014991 </v>
   <v>       0.00086541       0.00049964      -0.00969350 </v>
   <v>      -0.00560525      -0.00052114       0.00313499 </v>
   <v>       0.00560525      -0.00052114       0.00313499 </v>
   <v>       0.00325394      -0.00459372       0.00313499 </v>
   <v>      -0.00741084       0.00246270      -0.00806137 </v>
   <v>       0.00741084       0.00246270      -0.00806137 </v>
   <v>      -0.00325394      -0.00459372       0.00313499 </v>
   <v>       0.00000000       0.00000000      -0.00227537 </v>
   <v>      -0.00235131       0.00511486       0.00313499 </v>
   <v>       0.00197220       0.00113865       0.00112191 </v>
   <v>       0.00000000      -0.00203205      -0.00414635 </v>
   <v>      -0.00197220       0.00113865       0.00112191 </v>
   <v>       0.00235131       0.00511486       0.00313499 </v>
   <v>       0.00000000       0.00443083       0.07059909 </v>
   <v>       0.00130158       0.02877857       0.01840366 </v>
   <v>      -0.00792954       0.00457812       0.00413762 </v>
   <v>       0.00792954       0.00457812       0.00413762 </v>
   <v>      -0.00130158       0.02877857       0.01840366 </v>
   <v>       0.19856472       0.11464140       0.12324845 </v>
   <v>      -0.19856472       0.11464140       0.12324845 </v>
   <v>      -0.02427219      -0.01551649       0.01840366 </v>
   <v>       0.00000000      -0.00572397       0.00291194 </v>
   <v>       0.02427219      -0.01551649       0.01840366 </v>
   <v>       0.00383721      -0.00221541       0.07059909 </v>
   <v>      -0.00000000      -0.22928279       0.12324845 </v>
   <v>      -0.00383721      -0.00221541       0.07059909 </v>
   <v>      -0.01603984       0.01042028       0.00332203 </v>
   <v>       0.01603984       0.01042028       0.00332203 </v>
   <v>      -0.00100431      -0.01910105       0.00332203 </v>
   <v>       0.02557377      -0.01326209       0.01840366 </v>
   <v>      -0.02557377      -0.01326209       0.01840366 </v>
   <v>       0.00100431      -0.01910105       0.00332203 </v>
   <v>       0.00000000       0.00000000      -0.00102258 </v>
   <v>      -0.01704415       0.00868077       0.00332203 </v>
   <v>       0.00495710       0.00286198       0.00291194 </v>
   <v>       0.00000000      -0.00915624       0.00413762 </v>
   <v>      -0.00495710       0.00286198       0.00291194 </v>
   <v>       0.01704415       0.00868077       0.00332203 </v>
   <v>       0.00000000       0.00000000       0.52697829 </v>
  </varray>
  <varray name="stress" >
   <v>      13.92246346       0.00000000      -0.00000000 </v>
   <v>       0.00000000      13.92246346       0.00000000 </v>
   <v>       0.00000000       0.00000000       2.22762112 </v>
  </varray>
  <energy>
   <i name="e_fr_energy">   -401.70060687 </i>
   <i name="e_wo_entrp">   -401.70037475 </i>
   <i name="e_0_energy">     -0.00046426 </i>
  </energy>
  <time name="totalsc"> 5195.24 5207.84</time>
 </calculation>
 <calculation>
  <scstep>
   <time name="dav">  177.03  177.45</time>
   <time name="total">  255.32  255.93</time>
   <energy>
    <i name="alphaZ">    724.79310432 </i>
    <i name="ewald"> 146040.03325860 </i>
    <i name="hartreedc">-199813.67575122 </i>
    <i name="XCdc">   2283.01674417 </i>
    <i name="pawpsdc">  76051.72639025 </i>
    <i name="pawaedc"> -75467.42602388 </i>
    <i name="eentropy">     -0.00031459 </i>
    <i name="bandstr"> -11497.65797787 </i>
    <i name="atom">  61277.49441763 </i>
    <i name="e_fr_energy">   -401.69615259 </i>
    <i name="e_wo_entrp">   -401.69583800 </i>
    <i name="e_0_energy">   -401.69599529 </i>
   </energy>
  </scstep>
  <scstep>
   <time name="dav">  185.01  185.46</time>
   <time name="total">  264.20  264.83</time>
   <energy>
    <i name="e_fr_energy">   -401.71607491 </i>
    <i name="e_wo_entrp">   -401.71579750 </i>
    <i name="e_0_energy">   -401.71593620 </i>
   </energy>
  </scstep>
  <scstep>
   <time name="dav">  191.67  192.14</time>
   <time name="total">  270.38  271.03</time>
   <energy>
    <i name="e_fr_energy">   -401.71565329 </i>
    <i name="e_wo_entrp">   -401.71539269 </i>
    <i name="e_0_energy">   -401.71552299 </i>
   </energy>
  </scstep>
  <scstep>
   <time name="dav">  185.14  185.58</time>
   <time name="total">  263.87  264.50</time>
   <energy>
    <i name="e_fr_energy">   -401.71567941 </i>
    <i name="e_wo_entrp">   -401.71541879 </i>
    <i name="e_0_energy">   -401.71554910 </i>
   </energy>
  </scstep>
  <scstep>
   <time name="dav">  183.35  183.82</time>
   <time name="total">  262.90  263.56</time>
   <energy>
    <i name="e_fr_energy">   -401.71549636 </i>
    <i name="e_wo_entrp">   -401.71525003 </i>
    <i name="e_0_energy">   -401.71537319 </i>
   </energy>
  </scstep>
  <scstep>
   <time name="dav">  183.29  183.75</time>
   <time name="total">  261.41  262.06</time>
   <energy>
    <i name="e_fr_energy">   -401.71551957 </i>
    <i name="e_wo_entrp">   -401.71527168 </i>
    <i name="e_0_energy">   -401.71539563 </i>
   </energy>
  </scstep>
  <scstep>
   <time name="dav">  185.22  185.66</time>
   <time name="total">  263.93  264.57</time>
   <energy>
    <i name="e_fr_energy">   -401.71551248 </i>
    <i name="e_wo_entrp">   -401.71526518 </i>
    <i name="e_0_energy">   -401.71538883 </i>
   </energy>
  </scstep>
  <scstep>
   <time name="dav">  187.62  188.07</time>
   <time name="total">  266.25  266.89</time>
   <energy>
    <i name="e_fr_energy">   -401.71550703 </i>
    <i name="e_wo_entrp">   -401.71525876 </i>
    <i name="e_0_energy">   -401.71538290 </i>
   </energy>
  </scstep>
  <scstep>
   <time name="dav">  191.31  191.76</time>
   <time name="total">  270.18  270.82</time>
   <energy>
    <i name="e_fr_energy">   -401.71550730 </i>
    <i name="e_wo_entrp">   -401.71525828 </i>
    <i name="e_0_energy">   -401.71538279 </i>
   </energy>
  </scstep>
  <scstep>
   <time name="dav">  191.28  191.74</time>
   <time name="total">  269.65  270.30</time>
   <energy>
    <i name="e_fr_energy">   -401.71550795 </i>
    <i name="e_wo_entrp">   -401.71525885 </i>
    <i name="e_0_energy">   -401.71538340 </i>
   </energy>
  </scstep>
  <scstep>
   <time name="dav">  168.95  169.35</time>
   <time name="total">  247.45  248.04</time>
   <energy>
    <i name="e_fr_energy">   -401.71550926 </i>
    <i name="e_wo_entrp">   -401.71526018 </i>
    <i name="e_0_energy">   -401.71538472 </i>
   </energy>
  </scstep>
  <scstep>
   <time name="dav">  161.69  162.14</time>
   <time name="total">  240.74  241.40</time>
   <energy>
    <i name="e_fr_energy">   -401.71551057 </i>
    <i name="e_wo_entrp">   -401.71526145 </i>
    <i name="e_0_energy">   -401.71538601 </i>
   </energy>
  </scstep>
  <scstep>
   <time name="dav">  160.86  161.25</time>
   <time name="total">  239.51  240.09</time>
   <energy>
    <i name="e_fr_energy">   -401.71551171 </i>
    <i name="e_wo_entrp">   -401.71526262 </i>
    <i name="e_0_energy">   -401.71538717 </i>
   </energy>
  </scstep>
  <scstep>
   <time name="dav">  160.17  160.58</time>
   <time name="total">  239.05  239.65</time>
   <energy>
    <i name="e_fr_energy">   -401.71551272 </i>
    <i name="e_wo_entrp">   -401.71526362 </i>
    <i name="e_0_energy">   -401.71538817 </i>
   </energy>
  </scstep>
  <scstep>
   <time name="dav">  161.40  161.79</time>
   <time name="total">  239.52  240.10</time>
[...]
       <r>   -64.3051     0.0000     0.0000 </r>
       <r>   -64.0625     0.0000     0.0000 </r>
       <r>   -63.8200     0.0000     0.0000 </r>
       <r>   -63.5774     0.0000     0.0000 </r>
       <r>   -63.3348     0.0000     0.0000 </r>
       <r>   -63.0923     0.0000     0.0000 </r>
       <r>   -62.8497     0.0000     0.0000 </r>
       <r>   -62.6071     0.0000     0.0000 </r>
       <r>   -62.3646     0.0000     0.0000 </r>
       <r>   -62.1220    64.6400    15.6795 </r>
       <r>   -61.8794    36.4761    24.5274 </r>
       <r>   -61.6369     1.9483    25.0000 </r>
       <r>   -61.3943     0.0000    25.0000 </r>
       <r>   -61.1517     0.0000    25.0000 </r>
       <r>   -60.9092     0.0000    25.0000 </r>
       <r>   -60.6666     0.0000    25.0000 </r>
       <r>   -60.4240     0.0000    25.0000 </r>
       <r>   -60.1815     0.0000    25.0000 </r>
       <r>   -59.9389     0.0000    25.0000 </r>
       <r>   -59.6963     0.0000    25.0000 </r>
       <r>   -59.4538     0.0000    25.0000 </r>
       <r>   -59.2112     0.0000    25.0000 </r>
       <r>   -58.9686     0.0000    25.0000 </r>
       <r>   -58.7261     0.0000    25.0000 </r>
       <r>   -58.4835     0.0000    25.0000 </r>
       <r>   -58.2409     0.0000    25.0000 </r>
       <r>   -57.9984     0.0000    25.0000 </r>
       <r>   -57.7558     0.0000    25.0000 </r>
       <r>   -57.5132     0.0000    25.0000 </r>
       <r>   -57.2707     0.0000    25.0000 </r>
       <r>   -57.0281     0.0000    25.0000 </r>
       <r>   -56.7855     0.0000    25.0000 </r>
       <r>   -56.5430     0.0000    25.0000 </r>
       <r>   -56.3004     0.0000    25.0000 </r>
       <r>   -56.0578     0.0000    25.0000 </r>
       <r>   -55.8153     0.0000    25.0000 </r>
       <r>   -55.5727     0.0000    25.0000 </r>
       <r>   -55.3302     0.0000    25.0000 </r>
       <r>   -55.0876     0.0000    25.0000 </r>
       <r>   -54.8450     0.0000    25.0000 </r>
       <r>   -54.6025     0.0000    25.0000 </r>
       <r>   -54.3599     0.0000    25.0000 </r>
       <r>   -54.1173     0.0000    25.0000 </r>
       <r>   -53.8748     0.0000    25.0000 </r>
       <r>   -53.6322     0.0000    25.0000 </r>
       <r>   -53.3896     0.0000    25.0000 </r>
       <r>   -53.1471     0.0000    25.0000 </r>
       <r>   -52.9045     0.0000    25.0000 </r>
       <r>   -52.6619     0.0000    25.0000 </r>
       <r>   -52.4194     0.0000    25.0000 </r>
       <r>   -52.1768     0.0000    25.0000 </r>
       <r>   -51.9342     0.0000    25.0000 </r>
       <r>   -51.6917     0.0000    25.0000 </r>
       <r>   -51.4491     0.0000    25.0000 </r>
       <r>   -51.2065     0.0000    25.0000 </r>
       <r>   -50.9640     0.0000    25.0000 </r>
       <r>   -50.7214     0.0000    25.0000 </r>
       <r>   -50.4788     0.0000    25.0000 </r>
       <r>   -50.2363     0.0000    25.0000 </r>
       <r>   -49.9937     0.0000    25.0000 </r>
       <r>   -49.7511     0.0000    25.0000 </r>
       <r>   -49.5086     0.0000    25.0000 </r>
       <r>   -49.2660     0.0000    25.0000 </r>
       <r>   -49.0234     0.0000    25.0000 </r>
       <r>   -48.7809     0.0000    25.0000 </r>
       <r>   -48.5383     0.0000    25.0000 </r>
       <r>   -48.2957     0.0000    25.0000 </r>
       <r>   -48.0532     0.0000    25.0000 </r>
       <r>   -47.8106     0.0000    25.0000 </r>
       <r>   -47.5680     0.0000    25.0000 </r>
       <r>   -47.3255     0.0000    25.0000 </r>
       <r>   -47.0829     0.0000    25.0000 </r>
       <r>   -46.8403     0.0000    25.0000 </r>
       <r>   -46.5978     0.0000    25.0000 </r>
       <r>   -46.3552     0.0000    25.0000 </r>
       <r>   -46.1126     0.0000    25.0000 </r>
       <r>   -45.8701     0.0000    25.0000 </r>
       <r>   -45.6275     0.0000    25.0000 </r>
       <r>   -45.3849     0.0000    25.0000 </r>
       <r>   -45.1424     0.0000    25.0000 </r>
       <r>   -44.8998     0.0000    25.0000 </r>
       <r>   -44.6572     0.0000    25.0000 </r>
       <r>   -44.4147     0.0000    25.0000 </r>
       <r>   -44.1721     0.0000    25.0000 </r>
       <r>   -43.9295     0.0000    25.0000 </r>
       <r>   -43.6870     0.0000    25.0000 </r>
       <r>   -43.4444     0.0000    25.0000 </r>
       <r>   -43.2018     0.0000    25.0000 </r>
       <r>   -42.9593     0.0000    25.0000 </r>
       <r>   -42.7167     0.0000    25.0000 </r>
       <r>   -42.4741     0.0000    25.0000 </r>
       <r>   -42.2316     0.0000    25.0000 </r>
       <r>   -41.9890     0.0000    25.0000 </r>
       <r>   -41.7464     0.0000    25.0000 </r>
       <r>   -41.5039     0.0000    25.0000 </r>
       <r>   -41.2613     0.0000    25.0000 </r>
       <r>   -41.0187     0.0000    25.0000 </r>
       <r>   -40.7762     0.0000    25.0000 </r>
       <r>   -40.5336     0.0000    25.0000 </r>
       <r>   -40.2910     0.0000    25.0000 </r>
       <r>   -40.0485     0.0000    25.0000 </r>
       <r>   -39.8059     0.0000    25.0000 </r>
       <r>   -39.5633     0.0000    25.0000 </r>
       <r>   -39.3208     0.0000    25.0000 </r>
       <r>   -39.0782     0.0000    25.0000 </r>
       <r>   -38.8356     0.0000    25.0000 </r>
       <r>   -38.5931     0.0000    25.0000 </r>
       <r>   -38.3505     0.0000    25.0000 </r>
       <r>   -38.1079     0.0000    25.0000 </r>
       <r>   -37.8654     0.0000    25.0000 </r>
       <r>   -37.6228     0.0000    25.0000 </r>
       <r>   -37.3802     0.0000    25.0000 </r>
       <r>   -37.1377     0.0000    25.0000 </r>
       <r>   -36.8951     0.0000    25.0000 </r>
       <r>   -36.6525     0.0215    25.0052 </r>
       <r>   -36.4100    61.1556    39.8395 </r>
       <r>   -36.1674   191.6431    86.3257 </r>
       <r>   -35.9248    54.6349    99.5783 </r>
       <r>   -35.6823     1.7384   100.0000 </r>
       <r>   -35.4397     0.0000   100.0000 </r>
       <r>   -35.1971     0.0000   100.0000 </r>
       <r>   -34.9546     0.0000   100.0000 </r>
       <r>   -34.7120     0.0000   100.0000 </r>
       <r>   -34.4694     0.0000   100.0000 </r>
       <r>   -34.2269     0.0000   100.0000 </r>
       <r>   -33.9843     0.0000   100.0000 </r>
       <r>   -33.7417     0.0000   100.0000 </r>
       <r>   -33.4992     0.0000   100.0000 </r>
       <r>   -33.2566     0.0000   100.0000 </r>
       <r>   -33.0140     0.0000   100.0000 </r>
       <r>   -32.7715     0.0000   100.0000 </r>
       <r>   -32.5289     0.0000   100.0000 </r>
       <r>   -32.2863     0.0000   100.0000 </r>
       <r>   -32.0438     0.0000   100.0000 </r>
       <r>   -31.8012     0.0000   100.0000 </r>
       <r>   -31.5586     0.0000   100.0000 </r>
       <r>   -31.3161     0.0000   100.0000 </r>
       <r>   -31.0735     0.0000   100.0000 </r>
       <r>   -30.8309     0.0000   100.0000 </r>
       <r>   -30.5884     0.0000   100.0000 </r>
       <r>   -30.3458     0.0000   100.0000 </r>
       <r>   -30.1032     0.0000   100.0000 </r>
       <r>   -29.8607     0.0000   100.0000 </r>
       <r>   -29.6181     0.0000   100.0000 </r>
       <r>   -29.3755     0.0000   100.0000 </r>
       <r>   -29.1330     0.0000   100.0000 </r>
       <r>   -28.8904     0.0000   100.0000 </r>
       <r>   -28.6478     0.0000   100.0000 </r>
       <r>   -28.4053     0.0000   100.0000 </r>
       <r>   -28.1627     0.0000   100.0000 </r>
       <r>   -27.9201     0.0000   100.0000 </r>
       <r>   -27.6776     0.0000   100.0000 </r>
       <r>   -27.4350     0.0000   100.0000 </r>
       <r>   -27.1924     0.0000   100.0000 </r>
       <r>   -26.9499     0.0000   100.0000 </r>
       <r>   -26.7073     0.0000   100.0000 </r>
       <r>   -26.4647     0.0000   100.0000 </r>
       <r>   -26.2222     0.0000   100.0000 </r>
       <r>   -25.9796     0.0000   100.0000 </r>
       <r>   -25.7370     0.0000   100.0000 </r>
       <r>   -25.4945     0.0000   100.0000 </r>
       <r>   -25.2519     0.0000   100.0000 </r>
       <r>   -25.0093     0.0000   100.0000 </r>
       <r>   -24.7668     0.0000   100.0000 </r>
       <r>   -24.5242     0.0000   100.0000 </r>
       <r>   -24.2816     0.0000   100.0000 </r>
       <r>   -24.0391     0.0000   100.0000 </r>
       <r>   -23.7965     0.0000   100.0000 </r>
       <r>   -23.5539     0.0000   100.0000 </r>
       <r>   -23.3114     0.0000   100.0000 </r>
       <r>   -23.0688     0.0000   100.0000 </r>
       <r>   -22.8262     0.0000   100.0000 </r>
       <r>   -22.5837     0.0000   100.0000 </r>
       <r>   -22.3411     0.0000   100.0000 </r>
       <r>   -22.0985     0.0000   100.0000 </r>
       <r>   -21.8560     0.0000   100.0000 </r>
       <r>   -21.6134     0.0000   100.0000 </r>
       <r>   -21.3708     0.0000   100.0000 </r>
       <r>   -21.1283     0.0000   100.0000 </r>
       <r>   -20.8857     0.0000   100.0000 </r>
       <r>   -20.6431     0.0000   100.0000 </r>
       <r>   -20.4006     0.0000   100.0000 </r>
       <r>   -20.1580     0.0000   100.0000 </r>
       <r>   -19.9154     0.0000   100.0000 </r>
       <r>   -19.6729     0.0000   100.0000 </r>
       <r>   -19.4303     0.0000   100.0000 </r>
       <r>   -19.1877     0.0000   100.0000 </r>
       <r>   -18.9452     0.0000   100.0000 </r>
       <r>   -18.7026     0.0000   100.0000 </r>
       <r>   -18.4600     0.0000   100.0000 </r>
       <r>   -18.2175     0.0000   100.0000 </r>
       <r>   -17.9749     0.0000   100.0000 </r>
       <r>   -17.7323     0.0000   100.0000 </r>
       <r>   -17.4898     0.0000   100.0000 </r>
       <r>   -17.2472     0.0000   100.0000 </r>
       <r>   -17.0046     0.0000   100.0000 </r>
       <r>   -16.7621     0.0000   100.0000 </r>
       <r>   -16.5195     0.0000   100.0000 </r>
       <r>   -16.2769     0.0000   100.0000 </r>
       <r>   -16.0344     0.0000   100.0000 </r>
       <r>   -15.7918     0.0000   100.0000 </r>
       <r>   -15.5492     2.4546   100.5954 </r>
       <r>   -15.3067     6.1244   102.0810 </r>
       <r>   -15.0641     6.5732   103.6754 </r>
       <r>   -14.8215     6.5676   105.2685 </r>
       <r>   -14.5790     6.2864   106.7934 </r>
       <r>   -14.3364    13.8001   110.1408 </r>
       <r>   -14.0938    21.8279   115.4355 </r>
       <r>   -13.8513    28.7916   122.4194 </r>
       <r>   -13.6087    41.4416   132.4717 </r>
       <r>   -13.3661    59.8227   146.9827 </r>
       <r>   -13.1236    12.4390   150.0000 </r>
       <r>   -12.8810     0.0000   150.0000 </r>
       <r>   -12.6384     0.0000   150.0000 </r>
       <r>   -12.3959     0.0000   150.0000 </r>
       <r>   -12.1533     0.0000   150.0000 </r>
       <r>   -11.9107     0.0000   150.0000 </r>
       <r>   -11.6682     0.0000   150.0000 </r>
       <r>   -11.4256     0.0000   150.0000 </r>
       <r>   -11.1831     0.0000   150.0000 </r>
       <r>   -10.9405     0.0000   150.0000 </r>
       <r>   -10.6979     0.0000   150.0000 </r>
       <r>   -10.4554     0.0000   150.0000 </r>
       <r>   -10.2128     0.0000   150.0000 </r>
       <r>    -9.9702     0.0000   150.0000 </r>
       <r>    -9.7277     0.0000   150.0000 </r>
       <r>    -9.4851     0.0000   150.0000 </r>
       <r>    -9.2425     0.0000   150.0000 </r>
       <r>    -9.0000     0.0000   150.0000 </r>
       <r>    -8.7574     0.0000   150.0000 </r>
       <r>    -8.5148     0.0000   150.0000 </r>
       <r>    -8.2723     0.0000   150.0000 </r>
       <r>    -8.0297     0.0000   150.0000 </r>
       <r>    -7.7871     0.0000   150.0000 </r>
       <r>    -7.5446     0.0003   150.0001 </r>
       <r>    -7.3020     5.2658   151.2774 </r>
       <r>    -7.0594    16.3109   155.2339 </r>
       <r>    -6.8169    26.5980   161.6856 </r>
       <r>    -6.5743    42.1019   171.8981 </r>
       <r>    -6.3317    44.9018   182.7898 </r>
       <r>    -6.0892    16.3002   186.7437 </r>
       <r>    -5.8466    12.6108   189.8026 </r>
       <r>    -5.6040    12.3267   192.7927 </r>
       <r>    -5.3615    32.9002   200.7732 </r>
       <r>    -5.1189    50.1717   212.9431 </r>
       <r>    -4.8763    22.3246   218.3583 </r>
       <r>    -4.6338    46.8397   229.7201 </r>
       <r>    -4.3912    42.7191   240.0823 </r>
       <r>    -4.1486    23.2701   245.7269 </r>
       <r>    -3.9061    23.5613   251.4420 </r>
       <r>    -3.6635    16.3931   255.4184 </r>
       <r>    -3.4209    41.9287   265.5889 </r>
       <r>    -3.1784    48.6071   277.3794 </r>
       <r>    -2.9358    30.5375   284.7868 </r>
       <r>    -2.6932    32.2105   292.6000 </r>
       <r>    -2.4507    26.8903   299.1226 </r>
       <r>    -2.2081    33.2301   307.1831 </r>
       <r>    -1.9655    35.4238   315.7758 </r>
       <r>    -1.7230    32.1526   323.5749 </r>
       <r>    -1.4804    12.6701   326.6483 </r>
       <r>    -1.2378     1.4501   327.0000 </r>
       <r>    -0.9953     8.7101   329.1128 </r>
       <r>    -0.7527     3.6577   330.0000 </r>
       <r>    -0.5101     0.0000   330.0000 </r>
       <r>    -0.2676     0.0000   330.0000 </r>
       <r>    -0.0250     0.0000   330.0000 </r>
       <r>     0.2176     0.0010   330.0003 </r>
       <r>     0.4601     7.1618   331.7375 </r>
       <r>     0.7027    32.8312   339.7012 </r>
       <r>     0.9453    40.4862   349.5218 </r>
       <r>     1.1878    52.0141   362.1387 </r>
       <r>     1.4304    54.4228   375.3399 </r>
       <r>     1.6730    52.6515   388.1114 </r>
       <r>     1.9155    36.0898   396.8656 </r>
       <r>     2.1581    23.2122   402.4960 </r>
       <r>     2.4007    21.3659   407.6787 </r>
       <r>     2.6432    20.2862   412.5995 </r>
       <r>     2.8858    27.8259   419.3491 </r>
       <r>     3.1284    29.8718   426.5950 </r>
       <r>     3.3709    23.3722   432.2643 </r>
       <r>     3.6135    17.2450   436.4474 </r>
       <r>     3.8561    10.7415   439.0529 </r>
       <r>     4.0986     3.9045   440.0000 </r>
       <r>     4.3412     0.0000   440.0000 </r>
       <r>     4.5838     0.0000   440.0000 </r>
       <r>     4.8263     0.0000   440.0000 </r>
       <r>     5.0689     0.0000   440.0000 </r>
       <r>     5.3115     0.0000   440.0000 </r>
       <r>     5.5540     0.0000   440.0000 </r>
       <r>     5.7966     0.0000   440.0000 </r>
       <r>     6.0392     0.0000   440.0000 </r>
       <r>     6.2817     0.0000   440.0000 </r>
       <r>     6.5243     0.0000   440.0000 </r>
       <r>     6.7669     0.0000   440.0000 </r>
       <r>     7.0094     0.0000   440.0000 </r>
       <r>     7.2520     0.0000   440.0000 </r>
      </set>
     </set>
    </array>
   </total>
  </dos>
 </calculation>
 <structure name="finalpos" >
  <crystal>
   <varray name="basis" >
    <v>      15.62500000       0.00000000       0.00000000 </v>
    <v>      -7.81250000      13.53164693       0.00000000 </v>
    <v>       0.00000000       0.00000000      20.00000000 </v>
   </varray>
   <i name="volume">   4228.63966688 </i>
   <varray name="rec_basis" >
    <v>       0.06400000       0.03695042      -0.00000000 </v>
    <v>       0.00000000       0.07390083       0.00000000 </v>
    <v>       0.00000000      -0.00000000       0.05000000 </v>
   </varray>
  </crystal>
  <varray name="positions" >
   <v>       0.06591097       0.13278630       0.18669992 </v>
   <v>       0.26687533       0.13278630       0.18669992 </v>
   <v>       0.46681813       0.13318185       0.18531774 </v>
   <v>       0.66660315       0.13320630       0.18474686 </v>
   <v>       0.86636372       0.13318185       0.18531774 </v>
   <v>       0.06591097       0.33312465       0.18669992 </v>
   <v>       0.26666666       0.33333332       0.19014584 </v>
   <v>       0.46721367       0.33312465       0.18669992 </v>
   <v>       0.66688628       0.33326357       0.18502452 </v>
   <v>       0.86637729       0.33326357       0.18502452 </v>
   <v>       0.06652633       0.53347365       0.18542278 </v>
   <v>       0.26687533       0.53408901       0.18669992 </v>
   <v>       0.46721367       0.53408901       0.18669992 </v>
   <v>       0.66694732       0.53347365       0.18542278 </v>
   <v>       0.86666123       0.53332246       0.18499406 </v>
   <v>       0.06667752       0.73333875       0.18499406 </v>
   <v>       0.26673641       0.73362269       0.18502452 </v>
   <v>       0.46681813       0.73363626       0.18531774 </v>
   <v>       0.66688628       0.73362269       0.18502452 </v>
   <v>       0.86666123       0.73333875       0.18499406 </v>
   <v>       0.06652633       0.93305266       0.18542278 </v>
   <v>       0.26673641       0.93311370       0.18502452 </v>
   <v>       0.46679368       0.93339683       0.18474686 </v>
   <v>       0.66660315       0.93339683       0.18474686 </v>
   <v>       0.86637729       0.93311370       0.18502452 </v>
   <v>       0.13374791       0.06749581       0.10724917 </v>
   <v>       0.33302786       0.06721873       0.10645494 </v>
   <v>       0.53318450       0.06681549       0.10575975 </v>
   <v>       0.73363100       0.06681549       0.10575975 </v>
   <v>       0.93419089       0.06721873       0.10645494 </v>
   <v>       0.13584133       0.26792066       0.10974871 </v>
   <v>       0.33207934       0.26792066       0.10974871 </v>
   <v>       0.53278127       0.26697214       0.10645494 </v>
   <v>       0.73335306       0.26670610       0.10575466 </v>
   <v>       0.93419089       0.26697214       0.10645494 </v>
   <v>       0.13374791       0.46625208       0.10724917 </v>
   <v>       0.33207934       0.46415867       0.10974871 </v>
   <v>       0.53250419       0.46625208       0.10724917 </v>
   <v>       0.73307646       0.46674676       0.10604945 </v>
   <v>       0.93367031       0.46674676       0.10604945 </v>
   <v>       0.13325324       0.66632968       0.10604945 </v>
   <v>       0.33302786       0.66580911       0.10645494 </v>
   <v>       0.53278127       0.66580911       0.10645494 </v>
   <v>       0.73307646       0.66632968       0.10604945 </v>
   <v>       0.93333334       0.66666666       0.10590412 </v>
   <v>       0.13325324       0.86692354       0.10604945 </v>
   <v>       0.33329390       0.86664694       0.10575466 </v>
   <v>       0.53318450       0.86636899       0.10575975 </v>
   <v>       0.73335306       0.86664694       0.10575466 </v>
   <v>       0.93367031       0.86692354       0.10604945 </v>
   <v>       0.13286378       0.06572754       0.26552614 </v>
   <v>       0.33393125       0.06535331       0.26486927 </v>
   <v>       0.53357953       0.06642046       0.26402959 </v>
   <v>       0.73284095       0.06642046       0.26402959 </v>
   <v>       0.93142207       0.06535331       0.26486927 </v>
   <v>       0.12441713       0.26220855       0.27041375 </v>
   <v>       0.33779144       0.26220855       0.27041375 </v>
   <v>       0.53464669       0.26606875       0.26486927 </v>
   <v>       0.73316658       0.26633314       0.26400597 </v>
   <v>       0.93142207       0.26606875       0.26486927 </v>
   <v>       0.13286378       0.46713622       0.26552614 </v>
   <v>       0.33779144       0.47558287       0.27041375 </v>
   <v>       0.53427246       0.46713622       0.26552614 </v>
   <v>       0.73361270       0.46664563       0.26422673 </v>
   <v>       0.93303294       0.46664563       0.26422673 </v>
   <v>       0.13335437       0.66696706       0.26422673 </v>
   <v>       0.33393125       0.66857793       0.26486927 </v>
   <v>       0.53464669       0.66857793       0.26486927 </v>
   <v>       0.73361270       0.66696706       0.26422673 </v>
   <v>       0.93333334       0.66666666       0.26404180 </v>
   <v>       0.13335437       0.86638730       0.26422673 </v>
   <v>       0.33366686       0.86683342       0.26400597 </v>
   <v>       0.53357953       0.86715905       0.26402959 </v>
   <v>       0.73316658       0.86683342       0.26400597 </v>
   <v>       0.93303294       0.86638730       0.26422673 </v>
   <v>       0.26666666       0.33333332       0.33358754 </v>
  </varray>
 </structure>
</modeling>
