<?xml version="1.0" encoding="ISO-8859-1"?>
<modeling>
 <generator>
  <i name="program" type="string">vasp </i>
  <i name="version" type="string">6.2.1  </i>
  <i name="subversion" type="string">16May21 (build Jun 03 2021 09:39:59) complex                          parallel </i>
  <i name="platform" type="string">IFC15_impi </i>
  <i name="date" type="string">2021 06 04 </i>
  <i name="time" type="string">07:06:20 </i>
 </generator>
 <incar>
  <i type="int" name="ISTART">     0</i>
  <i type="string" name="PREC">ACCURATE</i>
  <i type="string" name="ALGO">NORMAL</i>
  <i type="int" name="ISPIN">     2</i>
  <i type="int" name="NELM">   100</i>
  <i type="int" name="NELMDL">   -10</i>
  <i type="int" name="IBRION">     1</i>
  <i type="int" name="NFREE">    10</i>
  <i name="EDIFF">      0.00000100</i>
  <i name="EDIFFG">     -0.01000000</i>
  <i type="int" name="NSW">   200</i>
  <i type="int" name="ISYM">     2</i>
  <i name="ENCUT">    500.00000000</i>
  <i name="POTIM">      0.12500000</i>
  <i type="string" name="LREAL">AUTO</i>
  <v name="ROPT">      0.00020000      0.00020000      0.00020000</v>
  <i type="logical" name="LPLANE"> T  </i>
  <i type="int" name="ISMEAR">     1</i>
  <i name="SIGMA">      0.10000000</i>
  <i type="int" name="NWRITE">     1</i>
  <i type="logical" name="LWAVE"> F  </i>
  <i type="logical" name="LCHARG"> F  </i>
  <i type="logical" name="LVTOT"> F  </i>
  <i type="string" name="GGA">MK</i>
  <i type="int" name="VOSKOWN">     1</i>
  <i name="PARAM1">      0.12340000</i>
  <i name="PARAM2">      1.00000000</i>
  <i type="logical" name="LUSE_VDW"> T  </i>
  <i name="AGGAC">      0.00000000</i>
  <i type="logical" name="LDIPOL"> T  </i>
  <i type="int" name="IDIPOL">     3</i>
  <i name="SPRING">     -5.00000000</i>
 </incar>
 <primitive_cell>
  <structure name="primitive_cell" >
   <crystal>
    <varray name="basis" >
     <v>      15.62500000       0.00000000       0.00000000 </v>
     <v>      -7.81250000      13.53164693       0.00000000 </v>
     <v>       0.00000000       0.00000000      20.00000000 </v>
    </varray>
    <i name="volume">   4228.63966688 </i>
    <varray name="rec_basis" >
     <v>       0.06400000       0.03695042       0.00000000 </v>
     <v>       0.00000000       0.07390083       0.00000000 </v>
     <v>       0.00000000       0.00000000       0.05000000 </v>
    </varray>
   </crystal>
   <varray name="positions" >
    <v>       0.06804026       0.13488840       0.18653066 </v>
    <v>       0.26677274       0.13464838       0.18641125 </v>
    <v>       0.46648718       0.13400298       0.18646812 </v>
    <v>       0.66678926       0.13371403       0.18648361 </v>
    <v>       0.86741379       0.13392428       0.18657023 </v>
    <v>       0.06901509       0.33465839       0.18459132 </v>
    <v>       0.26827750       0.33799094       0.18191749 </v>
    <v>       0.46579062       0.33465643       0.18474629 </v>
    <v>       0.66641980       0.33382637       0.18669114 </v>
    <v>       0.86726167       0.33383777       0.18668009 </v>
    <v>       0.06787706       0.53347221       0.18648193 </v>
    <v>       0.26850841       0.53070447       0.18172180 </v>
    <v>       0.46137221       0.53124183       0.18381885 </v>
    <v>       0.66562528       0.53369931       0.18687527 </v>
    <v>       0.86668473       0.53342812       0.18746576 </v>
    <v>       0.06700198       0.73344219       0.18748983 </v>
    <v>       0.26663876       0.73237621       0.18597637 </v>
    <v>       0.46484345       0.73258599       0.18327216 </v>
    <v>       0.66789835       0.73348180       0.18646498 </v>
    <v>       0.86687222       0.73348467       0.18763589 </v>
    <v>       0.06704530       0.93391326       0.18755710 </v>
    <v>       0.26696316       0.93366626       0.18714626 </v>
    <v>       0.46661994       0.93358429       0.18599855 </v>
    <v>       0.66663682       0.93323255       0.18627649 </v>
    <v>       0.86712497       0.93408319       0.18728606 </v>
    <v>       0.13329319       0.06657853       0.10798115 </v>
    <v>       0.33290452       0.06675727       0.10773872 </v>
    <v>       0.53340518       0.06746587       0.10734159 </v>
    <v>       0.73383187       0.06714457       0.10752000 </v>
    <v>       0.93400792       0.06694474       0.10783637 </v>
    <v>       0.13420614       0.26630798       0.10520166 </v>
    <v>       0.33211057       0.26648728       0.10542494 </v>
    <v>       0.53354132       0.26711170       0.10708149 </v>
    <v>       0.73362155       0.26736640       0.10766618 </v>
    <v>       0.93320990       0.26687260       0.10712668 </v>
    <v>       0.13402963       0.46806962       0.10518146 </v>
    <v>       0.33377389       0.46683775       0.10203245 </v>
    <v>       0.53303870       0.46869149       0.10631531 </v>
    <v>       0.73344891       0.46754537       0.10808122 </v>
    <v>       0.93356631       0.46736924       0.10795956 </v>
    <v>       0.13288524       0.66682671       0.10777403 </v>
    <v>       0.33114717       0.66532753       0.10442596 </v>
    <v>       0.53407546       0.66553553       0.10612418 </v>
    <v>       0.73446056       0.66689095       0.10775539 </v>
    <v>       0.93356932       0.66690686       0.10858488 </v>
    <v>       0.13327654       0.86682276       0.10846589 </v>
    <v>       0.33276576       0.86667623       0.10742772 </v>
    <v>       0.53418442       0.86853373       0.10615047 </v>
    <v>       0.73440545       0.86713872       0.10753492 </v>
    <v>       0.93370822       0.86687666       0.10855195 </v>
    <v>       0.13429497       0.06841533       0.26611191 </v>
    <v>       0.33361772       0.06817422       0.26585101 </v>
    <v>       0.53314576       0.06685698       0.26533417 </v>
    <v>       0.73345969       0.06676528       0.26541475 </v>
    <v>       0.93488105       0.06853746       0.26596637 </v>
    <v>       0.13933062       0.27319182       0.26374327 </v>
    <v>       0.33325879       0.27302311       0.26340275 </v>
    <v>       0.53215447       0.26809697       0.26493324 </v>
    <v>       0.73345992       0.26701237       0.26563607 </v>
    <v>       0.93601708       0.26819057       0.26482286 </v>
    <v>       0.13956452       0.46668315       0.26356318 </v>
    <v>       0.52796356       0.46644843       0.26477439 </v>
    <v>       0.73213251       0.46668787       0.26613860 </v>
    <v>       0.93465897       0.46673510       0.26602779 </v>
    <v>       0.13448309       0.66625991       0.26592205 </v>
    <v>       0.33398270       0.66097291       0.26285120 </v>
    <v>       0.52976971       0.66689102       0.26128668 </v>
    <v>       0.73274801       0.66649643       0.26627955 </v>
    <v>       0.93362149       0.66658441       0.26666435 </v>
    <v>       0.13400438       0.86710532       0.26652711 </v>
    <v>       0.33375684       0.86563919       0.26551959 </v>
    <v>       0.53193803       0.86502483       0.26404798 </v>
    <v>       0.73309188       0.86687553       0.26589685 </v>
    <v>       0.93357184       0.86732052       0.26662122 </v>
    <v>       0.46232668       0.57939605       0.34687011 </v>
   </varray>
  </structure>
  <varray name="primitive_index" >
   <v type="int" >        1 </v>
   <v type="int" >        2 </v>
   <v type="int" >        3 </v>
   <v type="int" >        4 </v>
   <v type="int" >        5 </v>
   <v type="int" >        6 </v>
   <v type="int" >        7 </v>
   <v type="int" >        8 </v>
   <v type="int" >        9 </v>
   <v type="int" >       10 </v>
   <v type="int" >       11 </v>
   <v type="int" >       12 </v>
   <v type="int" >       13 </v>
   <v type="int" >       14 </v>
   <v type="int" >       15 </v>
   <v type="int" >       16 </v>
   <v type="int" >       17 </v>
   <v type="int" >       18 </v>
   <v type="int" >       19 </v>
   <v type="int" >       20 </v>
   <v type="int" >       21 </v>
   <v type="int" >       22 </v>
   <v type="int" >       23 </v>
   <v type="int" >       24 </v>
   <v type="int" >       25 </v>
   <v type="int" >       26 </v>
   <v type="int" >       27 </v>
   <v type="int" >       28 </v>
   <v type="int" >       29 </v>
   <v type="int" >       30 </v>
   <v type="int" >       31 </v>
   <v type="int" >       32 </v>
   <v type="int" >       33 </v>
   <v type="int" >       34 </v>
   <v type="int" >       35 </v>
   <v type="int" >       36 </v>
   <v type="int" >       37 </v>
   <v type="int" >       38 </v>
   <v type="int" >       39 </v>
   <v type="int" >       40 </v>
   <v type="int" >       41 </v>
   <v type="int" >       42 </v>
   <v type="int" >       43 </v>
   <v type="int" >       44 </v>
   <v type="int" >       45 </v>
   <v type="int" >       46 </v>
   <v type="int" >       47 </v>
   <v type="int" >       48 </v>
   <v type="int" >       49 </v>
   <v type="int" >       50 </v>
   <v type="int" >       51 </v>
   <v type="int" >       52 </v>
   <v type="int" >       53 </v>
   <v type="int" >       54 </v>
   <v type="int" >       55 </v>
   <v type="int" >       56 </v>
   <v type="int" >       57 </v>
   <v type="int" >       58 </v>
   <v type="int" >       59 </v>
   <v type="int" >       60 </v>
   <v type="int" >       61 </v>
   <v type="int" >       62 </v>
   <v type="int" >       63 </v>
   <v type="int" >       64 </v>
   <v type="int" >       65 </v>
   <v type="int" >       66 </v>
   <v type="int" >       67 </v>
   <v type="int" >       68 </v>
   <v type="int" >       69 </v>
   <v type="int" >       70 </v>
   <v type="int" >       71 </v>
   <v type="int" >       72 </v>
   <v type="int" >       73 </v>
   <v type="int" >       74 </v>
   <v type="int" >       75 </v>
  </varray>
 </primitive_cell>
 <kpoints>
  <generation param="Monkhorst-Pack">
   <v type="int" name="divisions">       3        3        1 </v>
   <v name="usershift">      0.00000000       0.00000000       0.00000000 </v>
   <v name="genvec1">      0.33333333       0.00000000       0.00000000 </v>
   <v name="genvec2">      0.00000000       0.33333333       0.00000000 </v>
   <v name="genvec3">      0.00000000       0.00000000       1.00000000 </v>
   <v name="shift">      0.00000000       0.00000000       0.00000000 </v>
  </generation>
  <varray name="kpointlist" >
   <v>       0.00000000       0.00000000       0.00000000 </v>
   <v>       0.33333333      -0.00000000       0.00000000 </v>
   <v>       0.00000000       0.33333333       0.00000000 </v>
   <v>      -0.33333333       0.33333333       0.00000000 </v>
   <v>       0.33333333       0.33333333       0.00000000 </v>
  </varray>
  <varray name="weights" >
   <v>       0.11111111 </v>
   <v>       0.22222222 </v>
   <v>       0.22222222 </v>
   <v>       0.22222222 </v>
   <v>       0.22222222 </v>
  </varray>
 </kpoints>
 <parameters>
  <separator name="general" >
   <i type="string" name="SYSTEM">unknown system</i>
   <i type="logical" name="LCOMPAT"> F  </i>
  </separator>
  <separator name="electronic" >
   <i type="string" name="PREC">accura</i>
   <i name="ENMAX">    500.00000000</i>
   <i name="ENAUG">    446.01400000</i>
   <i name="EDIFF">      0.00000100</i>
   <i type="int" name="IALGO">    38</i>
   <i type="int" name="IWAVPR">    11</i>
   <i type="int" name="NBANDS">   432</i>
   <i type="int" name="NBANDSLOW">    -1</i>
   <i type="int" name="NBANDSHIGH">    -1</i>
   <i name="NELECT">    654.00000000</i>
   <i type="int" name="TURBO">     0</i>
   <i type="int" name="IRESTART">     0</i>
   <i type="int" name="NREBOOT">     0</i>
   <i type="int" name="NMIN">     0</i>
   <i name="EREF">      0.00000000</i>
   <separator name="electronic smearing" >
    <i type="int" name="ISMEAR">     1</i>
    <i name="SIGMA">      0.10000000</i>
    <i name="KSPACING">      0.50000000</i>
    <i type="logical" name="KGAMMA"> T  </i>
    <i type="logical" name="KBLOWUP"> T  </i>
   </separator>
   <separator name="electronic projectors" >
    <i type="logical" name="LREAL"> T  </i>
    <v name="ROPT">     -0.00020000     -0.00020000     -0.00020000</v>
    <i type="int" name="LMAXPAW">  -100</i>
    <i type="int" name="LMAXMIX">     2</i>
    <i type="logical" name="NLSPLINE"> F  </i>
   </separator>
   <separator name="electronic startup" >
    <i type="int" name="ISTART">     0</i>
    <i type="int" name="ICHARG">     2</i>
    <i type="int" name="INIWAV">     1</i>
   </separator>
   <separator name="electronic spin" >
    <i type="int" name="ISPIN">     2</i>
    <i type="logical" name="LNONCOLLINEAR"> F  </i>
    <v name="MAGMOM">      1.00000000      1.00000000      1.00000000      1.00000000      1.00000000      1.00000000      1.00000000      1.00000000      1.00000000      1.00000000      1.00000000      1.00000000      1.00000000      1.00000000      1.00000000      1.00000000      1.00000000      1.00000000      1.00000000      1.00000000
      1.00000000      1.00000000      1.00000000      1.00000000      1.00000000      1.00000000      1.00000000      1.00000000      1.00000000      1.00000000      1.00000000      1.00000000      1.00000000      1.00000000      1.00000000      1.00000000      1.00000000      1.00000000      1.00000000      1.00000000
      1.00000000      1.00000000      1.00000000      1.00000000      1.00000000      1.00000000      1.00000000      1.00000000      1.00000000      1.00000000      1.00000000      1.00000000      1.00000000      1.00000000      1.00000000      1.00000000      1.00000000      1.00000000      1.00000000      1.00000000
      1.00000000      1.00000000      1.00000000      1.00000000      1.00000000      1.00000000      1.00000000      1.00000000      1.00000000      1.00000000      1.00000000      1.00000000      1.00000000      1.00000000      1.00000000</v>
    <i name="NUPDOWN">     -1.00000000</i>
    <i type="logical" name="LSORBIT"> F  </i>
    <v name="SAXIS">      0.00000000      0.00000000      1.00000000</v>
    <i type="logical" name="LSPIRAL"> F  </i>
    <v name="QSPIRAL">      0.00000000      0.00000000      0.00000000</v>
    <i type="logical" name="LZEROZ"> F  </i>
   </separator>
   <separator name="electronic exchange-correlation" >
    <i type="logical" name="LASPH"> F  </i>
    <i type="logical" name="LMETAGGA"> F  </i>
   </separator>
   <separator name="electronic convergence" >
    <i type="int" name="NELM">   100</i>
    <i type="int" name="NELMDL">   -10</i>
    <i type="int" name="NELMIN">     2</i>
    <i name="ENINI">    500.00000000</i>
    <separator name="electronic convergence detail" >
     <i type="logical" name="LDIAG"> T  </i>
     <i type="logical" name="LSUBROT"> F  </i>
     <i name="WEIMIN">      0.00100000</i>
     <i name="EBREAK">      0.00000000</i>
     <i name="DEPER">      0.30000000</i>
     <i type="int" name="NRMM">     4</i>
     <i name="TIME">      0.40000000</i>
    </separator>
   </separator>
   <separator name="electronic mixer" >
    <i name="AMIX">      0.40000000</i>
    <i name="BMIX">      1.00000000</i>
    <i name="AMIN">      0.10000000</i>
    <i name="AMIX_MAG">      1.60000000</i>
    <i name="BMIX_MAG">      1.00000000</i>
    <separator name="electronic mixer details" >
     <i type="int" name="IMIX">     4</i>
     <i type="logical" name="MIXFIRST"> F  </i>
     <i type="int" name="MAXMIX">   -45</i>
     <i name="WC">    100.00000000</i>
     <i type="int" name="INIMIX">     1</i>
     <i type="int" name="MIXPRE">     1</i>
     <i type="int" name="MREMOVE">     5</i>
    </separator>
   </separator>
   <separator name="electronic dipolcorrection" >
    <i type="logical" name="LDIPOL"> T  </i>
    <i type="logical" name="LMONO"> F  </i>
    <i type="int" name="IDIPOL">     3</i>
    <i name="EPSILON">      1.00000000</i>
    <v name="DIPOL">   -100.00000000   -100.00000000   -100.00000000</v>
    <i name="EFIELD">      0.00000000</i>
   </separator>
  </separator>
  <separator name="grids" >
   <i type="int" name="NGX">   120</i>
   <i type="int" name="NGY">   120</i>
   <i type="int" name="NGZ">   150</i>
   <i type="int" name="NGXF">   240</i>
   <i type="int" name="NGYF">   240</i>
   <i type="int" name="NGZF">   300</i>
   <i type="logical" name="ADDGRID"> F  </i>
  </separator>
  <separator name="ionic" >
   <i type="int" name="NSW">   200</i>
   <i type="int" name="IBRION">     1</i>
   <i type="int" name="MDALGO">     0</i>
   <i type="int" name="ISIF">     2</i>
   <i name="PSTRESS">      0.00000000</i>
   <i name="EDIFFG">     -0.01000000</i>
   <i type="int" name="NFREE">    10</i>
   <i name="POTIM">      0.12500000</i>
   <i name="SMASS">     -3.00000000</i>
   <i name="SCALEE">      1.00000000</i>
  </separator>
  <separator name="ionic md" >
   <i name="TEBEG">      0.00010000</i>
   <i name="TEEND">      0.00010000</i>
   <i type="int" name="NBLOCK">     1</i>
   <i type="int" name="KBLOCK">   200</i>
   <i type="int" name="NPACO">   256</i>
   <i name="APACO">     16.00000000</i>
  </separator>
  <separator name="symmetry" >
   <i type="int" name="ISYM">     2</i>
   <i name="SYMPREC">      0.00001000</i>
  </separator>
  <separator name="dos" >
   <i type="int" name="LORBIT">     0</i>
   <v name="RWIGS">     -1.00000000     -1.00000000     -1.00000000</v>
   <i type="int" name="NEDOS">   301</i>
   <i name="EMIN">     10.00000000</i>
   <i name="EMAX">    -10.00000000</i>
   <i name="EFERMI">      0.00000000</i>
  </separator>
  <separator name="writing" >
   <i type="int" name="NWRITE">     1</i>
   <i type="logical" name="LWAVE"> F  </i>
   <i type="logical" name="LDOWNSAMPLE"> F  </i>
   <i type="logical" name="LCHARG"> F  </i>
   <i type="logical" name="LPARD"> F  </i>
   <i type="logical" name="LVTOT"> F  </i>
   <i type="logical" name="LVHAR"> F  </i>
   <i type="logical" name="LELF"> F  </i>
   <i type="logical" name="LOPTICS"> F  </i>
   <v name="STM">      0.00000000      0.00000000      0.00000000      0.00000000      0.00000000      0.00000000      0.00000000</v>
  </separator>
  <separator name="performance" >
   <i type="int" name="NPAR">     8</i>
   <i type="int" name="NSIM">     4</i>
   <i type="int" name="NBLK">    -1</i>
   <i type="logical" name="LPLANE"> T  </i>
   <i type="logical" name="LSCALAPACK"> F  </i>
   <i type="logical" name="LSCAAWARE"> F  </i>
   <i type="logical" name="LSCALU"> F  </i>
   <i type="logical" name="LASYNC"> F  </i>
   <i type="logical" name="LORBITALREAL"> F  </i>
  </separator>
  <separator name="miscellaneous" >
   <i type="int" name="IDIOT">     3</i>
   <i type="int" name="PHON_NSTRUCT">    -1</i>
   <i type="logical" name="LMUSIC"> F  </i>
   <v name="POMASS">     95.94000000     32.06600000    195.08000000</v>
   <v name="DARWINR">      0.00000000      0.00000000      0.00000000</v>
   <v name="DARWINV">      1.00000000      1.00000000      1.00000000</v>
   <i type="logical" name="LCORR"> T  </i>
  </separator>
  <i type="logical" name="GGA_COMPAT"> T  </i>
  <i type="logical" name="LBERRY"> F  </i>
  <i type="int" name="ICORELEVEL">     0</i>
  <i type="logical" name="LDAU"> F  </i>
  <i type="int" name="I_CONSTRAINED_M">     0</i>
  <separator name="electronic exchange-correlation" >
   <i type="string" name="GGA">MK</i>
   <i type="int" name="VOSKOWN">     1</i>
   <i type="logical" name="LHFCALC"> F  </i>
   <i type="string" name="PRECFOCK"></i>
   <i type="logical" name="LSYMGRAD"> F  </i>
   <i type="logical" name="LHFONE"> F  </i>
   <i type="logical" name="LRHFCALC"> F  </i>
   <i type="logical" name="LTHOMAS"> F  </i>
   <i type="logical" name="LMODELHF"> F  </i>
   <i type="logical" name="LFOCKACE"> F  </i>
   <i name="ENCUT4O">     -1.00000000</i>
   <i type="int" name="EXXOEP">     0</i>
   <i type="int" name="FOURORBIT">     0</i>
   <i name="AEXX">      0.00000000</i>
   <i name="HFALPHA">      0.00000000</i>
   <i name="MCALPHA">      0.00000000</i>
   <i name="ALDAX">      1.00000000</i>
   <i name="AGGAX">      1.00000000</i>
   <i name="ALDAC">      1.00000000</i>
   <i name="AGGAC">      0.00000000</i>
   <i type="int" name="NKREDX">     1</i>
   <i type="int" name="NKREDY">     1</i>
   <i type="int" name="NKREDZ">     1</i>
   <i type="logical" name="SHIFTRED"> F  </i>
   <i type="logical" name="ODDONLY"> F  </i>
   <i type="logical" name="EVENONLY"> F  </i>
   <i type="int" name="LMAXFOCK">     0</i>
   <i type="int" name="NMAXFOCKAE">     0</i>
   <i type="logical" name="LFOCKAEDFT"> F  </i>
   <i name="HFSCREEN">      0.00000000</i>
   <i name="HFSCREENC">      0.00000000</i>
   <i type="int" name="NBANDSGWLOW">     0</i>
  </separator>
  <separator name="vdW DFT" >
   <i type="logical" name="LUSE_VDW"> T  </i>
   <i name="Zab_VDW">     -0.84910000</i>
   <i name="PARAM1">      0.12340000</i>
   <i name="PARAM2">      1.00000000</i>
   <i name="PARAM3">      0.00000000</i>
  </separator>
  <separator name="model GW" >
   <i type="int" name="MODEL_GW">     0</i>
   <i name="MODEL_EPS0">     33.82911734</i>
   <i name="MODEL_ALPHA">      1.00000000</i>
  </separator>
  <separator name="linear response parameters" >
   <i type="logical" name="LEPSILON"> F  </i>
   <i type="logical" name="LRPA"> F  </i>
   <i type="logical" name="LNABLA"> F  </i>
   <i type="logical" name="LVEL"> F  </i>
   <i type="int" name="KINTER">     0</i>
   <i name="CSHIFT">      0.10000000</i>
   <i name="OMEGAMAX">     -1.00000000</i>
   <i name="DEG_THRESHOLD">      0.00200000</i>
   <i name="RTIME">     -0.10000000</i>
   <i name="WPLASMAI">      0.00000000</i>
   <v name="DFIELD">      0.00000000      0.00000000      0.00000000</v>
   <v name="WPLASMA">      0.00000000      0.00000000      0.00000000      0.00000000      0.00000000      0.00000000      0.00000000      0.00000000      0.00000000</v>
  </separator>
  <separator name="orbital magnetization" >
   <i type="logical" name="NUCIND"> F  </i>
   <v name="MAGPOS">      0.00000000      0.00000000      0.00000000</v>
   <i type="logical" name="LNICSALL"> T  </i>
   <i type="logical" name="ORBITALMAG"> F  </i>
   <i type="logical" name="LMAGBLOCH"> F  </i>
   <i type="logical" name="LCHIMAG"> F  </i>
   <i type="logical" name="LGAUGE"> T  </i>
   <i type="int" name="MAGATOM">     0</i>
   <v name="MAGDIPOL">      0.00000000      0.00000000      0.00000000</v>
   <v name="AVECCONST">      0.00000000      0.00000000      0.00000000</v>
  </separator>
  <separator name="response functions" >
   <i type="logical" name="LFINITE_TEMPERATURE"> F  </i>
   <i type="logical" name="LADDER"> F  </i>
   <i type="logical" name="LRPAFORCE"> F  </i>
   <i type="logical" name="LFXC"> F  </i>
   <i type="logical" name="LHARTREE"> T  </i>
   <i type="int" name="IBSE">     0</i>
   <v type="int" name="KPOINT">    -1     0     0     0</v>
   <i type="logical" name="LTCTC"> F  </i>
   <i type="logical" name="LTCTE"> F  </i>
   <i type="logical" name="LTETE"> F  </i>
   <i type="logical" name="LTRIPLET"> F  </i>
   <i type="logical" name="LFXCEPS"> F  </i>
   <i type="logical" name="LFXHEG"> F  </i>
   <i type="int" name="NATURALO">     2</i>
   <i type="logical" name="LHOLEGF"> F  </i>
   <i type="logical" name="L2ORDER"> F  </i>
   <i type="logical" name="LDMP1"> F  </i>
   <i type="logical" name="LMP2LT"> F  </i>
   <i type="logical" name="LSMP2LT"> F  </i>
   <i type="logical" name="LGWLF"> F  </i>
   <i name="ENCUTGW">     -2.00000000</i>
   <i name="ENCUTGWSOFT">     -2.00000000</i>
   <i name="ENCUTLF">     -1.00000000</i>
   <i type="logical" name="LESF_SPLINES"> F  </i>
   <i type="int" name="LMAXMP2">    -1</i>
   <i name="SCISSOR">      0.00000000</i>
   <i type="int" name="NOMEGA">     0</i>
   <i type="int" name="NOMEGAR">     0</i>
   <i type="int" name="NBANDSGW">    -1</i>
   <i type="int" name="NBANDSO">    -1</i>
   <i type="int" name="NBANDSV">    -1</i>
   <i type="int" name="NELM">   100</i>
   <i type="int" name="NELMHF">     1</i>
   <i type="int" name="DIM">     3</i>
   <i type="int" name="IESPILON">     4</i>
   <i type="int" name="ANTIRES">     0</i>
   <i name="OMEGAMAX">    -30.00000000</i>
   <i name="OMEGAMIN">    -30.00000000</i>
   <i name="OMEGATL">   -200.00000000</i>
   <i type="int" name="OMEGAGRID">     0</i>
   <i name="CSHIFT">     -0.10000000</i>
   <i type="logical" name="LSELFENERGY"> F  </i>
   <i type="logical" name="LSPECTRAL"> F  </i>
   <i type="logical" name="LSPECTRALGW"> F  </i>
   <i type="logical" name="LSINGLES"> F  </i>
   <i type="logical" name="LFERMIGW"> F  </i>
   <i type="logical" name="ODDONLYGW"> F  </i>
   <i type="logical" name="EVENONLYGW"> F  </i>
   <i type="int" name="NKREDLFX">     1</i>
   <i type="int" name="NKREDLFY">     1</i>
   <i type="int" name="NKREDLFZ">     1</i>
   <i type="int" name="MAXMEM">  2800</i>
   <i type="int" name="TELESCOPE">     0</i>
   <i type="int" name="NTAUPAR">    -1</i>
   <i type="int" name="NOMEGAPAR">    -1</i>
   <i name="DAMP_NEWTON">      0.80000001</i>
   <i name="LAMBDA">      1.00000000</i>
  </separator>
  <separator name="External order field" >
   <i name="OFIELD_KAPPA">      0.00000000</i>
   <v name="OFIELD_K">      0.00000000      0.00000000      0.00000000</v>
   <i name="OFIELD_Q6_NEAR">      0.00000000</i>
   <i name="OFIELD_Q6_FAR">      0.00000000</i>
   <i name="OFIELD_A">      0.00000000</i>
  </separator>
 </parameters>
 <atominfo>
  <atoms>      75 </atoms>
  <types>       3 </types>
  <array name="atoms" >
   <dimension dim="1">ion</dimension>
   <field type="string">element</field>
   <field type="int">atomtype</field>
   <set>
    <rc><c>Mo</c><c>   1</c></rc>
    <rc><c>Mo</c><c>   1</c></rc>
    <rc><c>Mo</c><c>   1</c></rc>
    <rc><c>Mo</c><c>   1</c></rc>
    <rc><c>Mo</c><c>   1</c></rc>
    <rc><c>Mo</c><c>   1</c></rc>
    <rc><c>Mo</c><c>   1</c></rc>
    <rc><c>Mo</c><c>   1</c></rc>
    <rc><c>Mo</c><c>   1</c></rc>
    <rc><c>Mo</c><c>   1</c></rc>
    <rc><c>Mo</c><c>   1</c></rc>
    <rc><c>Mo</c><c>   1</c></rc>
    <rc><c>Mo</c><c>   1</c></rc>
    <rc><c>Mo</c><c>   1</c></rc>
    <rc><c>Mo</c><c>   1</c></rc>
    <rc><c>Mo</c><c>   1</c></rc>
    <rc><c>Mo</c><c>   1</c></rc>
    <rc><c>Mo</c><c>   1</c></rc>
    <rc><c>Mo</c><c>   1</c></rc>
    <rc><c>Mo</c><c>   1</c></rc>
    <rc><c>Mo</c><c>   1</c></rc>
    <rc><c>Mo</c><c>   1</c></rc>
    <rc><c>Mo</c><c>   1</c></rc>
    <rc><c>Mo</c><c>   1</c></rc>
    <rc><c>Mo</c><c>   1</c></rc>
    <rc><c>S </c><c>   2</c></rc>
    <rc><c>S </c><c>   2</c></rc>
    <rc><c>S </c><c>   2</c></rc>
    <rc><c>S </c><c>   2</c></rc>
    <rc><c>S </c><c>   2</c></rc>
    <rc><c>S </c><c>   2</c></rc>
    <rc><c>S </c><c>   2</c></rc>
    <rc><c>S </c><c>   2</c></rc>
    <rc><c>S </c><c>   2</c></rc>
    <rc><c>S </c><c>   2</c></rc>
    <rc><c>S </c><c>   2</c></rc>
    <rc><c>S </c><c>   2</c></rc>
    <rc><c>S </c><c>   2</c></rc>
    <rc><c>S </c><c>   2</c></rc>
    <rc><c>S </c><c>   2</c></rc>
    <rc><c>S </c><c>   2</c></rc>
    <rc><c>S </c><c>   2</c></rc>
    <rc><c>S </c><c>   2</c></rc>
    <rc><c>S </c><c>   2</c></rc>
    <rc><c>S </c><c>   2</c></rc>
    <rc><c>S </c><c>   2</c></rc>
    <rc><c>S </c><c>   2</c></rc>
    <rc><c>S </c><c>   2</c></rc>
    <rc><c>S </c><c>   2</c></rc>
    <rc><c>S </c><c>   2</c></rc>
    <rc><c>S </c><c>   2</c></rc>
    <rc><c>S </c><c>   2</c></rc>
    <rc><c>S </c><c>   2</c></rc>
    <rc><c>S </c><c>   2</c></rc>
    <rc><c>S </c><c>   2</c></rc>
    <rc><c>S </c><c>   2</c></rc>
    <rc><c>S </c><c>   2</c></rc>
    <rc><c>S </c><c>   2</c></rc>
    <rc><c>S </c><c>   2</c></rc>
    <rc><c>S </c><c>   2</c></rc>
    <rc><c>S </c><c>   2</c></rc>
    <rc><c>S </c><c>   2</c></rc>
    <rc><c>S </c><c>   2</c></rc>
    <rc><c>S </c><c>   2</c></rc>
    <rc><c>S </c><c>   2</c></rc>
    <rc><c>S </c><c>   2</c></rc>
    <rc><c>S </c><c>   2</c></rc>
    <rc><c>S </c><c>   2</c></rc>
    <rc><c>S </c><c>   2</c></rc>
    <rc><c>S </c><c>   2</c></rc>
    <rc><c>S </c><c>   2</c></rc>
    <rc><c>S </c><c>   2</c></rc>
    <rc><c>S </c><c>   2</c></rc>
    <rc><c>S </c><c>   2</c></rc>
    <rc><c>Pt</c><c>   3</c></rc>
   </set>
  </array>
  <array name="atomtypes" >
   <dimension dim="1">type</dimension>
   <field type="int">atomspertype</field>
   <field type="string">element</field>
   <field>mass</field>
   <field>valence</field>
   <field type="string">pseudopotential</field>
   <set>
    <rc><c>  25</c><c>Mo</c><c>     95.94000000</c><c>     14.00000000</c><c>  PAW_PBE Mo_sv 02Feb2006               </c></rc>
    <rc><c>  49</c><c>S </c><c>     32.06600000</c><c>      6.00000000</c><c>  PAW_PBE S 06Sep2000                   </c></rc>
    <rc><c>   1</c><c>Pt</c><c>    195.08000000</c><c>     10.00000000</c><c>  PAW_PBE Pt 04Feb2005                  </c></rc>
   </set>
  </array>
 </atominfo>
 <structure name="initialpos" >
  <crystal>
   <varray name="basis" >
    <v>      15.62500000       0.00000000       0.00000000 </v>
    <v>      -7.81250000      13.53164693       0.00000000 </v>
    <v>       0.00000000       0.00000000      20.00000000 </v>
   </varray>
   <i name="volume">   4228.63966688 </i>
   <varray name="rec_basis" >
    <v>       0.06400000       0.03695042       0.00000000 </v>
    <v>       0.00000000       0.07390083       0.00000000 </v>
    <v>       0.00000000       0.00000000       0.05000000 </v>
   </varray>
  </crystal>
  <varray name="positions" >
   <v>       0.06811169       0.13492934       0.18659682 </v>
   <v>       0.26681594       0.13470834       0.18650452 </v>
   <v>       0.46655244       0.13408761       0.18645111 </v>
   <v>       0.66684111       0.13372932       0.18642302 </v>
   <v>       0.86749481       0.13396610       0.18654731 </v>
   <v>       0.06913799       0.33471616       0.18481078 </v>
   <v>       0.26840700       0.33806450       0.18266474 </v>
   <v>       0.46578157       0.33463801       0.18511058 </v>
   <v>       0.66651182       0.33384486       0.18664471 </v>
   <v>       0.86734039       0.33385833       0.18666435 </v>
   <v>       0.06796532       0.53353000       0.18656769 </v>
   <v>       0.26882094       0.53109871       0.18249183 </v>
   <v>       0.46194946       0.53258941       0.18568731 </v>
   <v>       0.66598267       0.53384361       0.18689873 </v>
   <v>       0.86678117       0.53342992       0.18738143 </v>
   <v>       0.06706950       0.73345347       0.18743823 </v>
   <v>       0.26668855       0.73253990       0.18598818 </v>
   <v>       0.46503095       0.73300285       0.18314078 </v>
   <v>       0.66828803       0.73365939       0.18617886 </v>
   <v>       0.86708648       0.73358585       0.18748677 </v>
   <v>       0.06712864       0.93396072       0.18750950 </v>
   <v>       0.26699640       0.93371434       0.18710420 </v>
   <v>       0.46661239       0.93371122       0.18589933 </v>
   <v>       0.66674576       0.93331841       0.18617226 </v>
   <v>       0.86731110       0.93417736       0.18716579 </v>
   <v>       0.13341603       0.06672623       0.10798655 </v>
   <v>       0.33293561       0.06689507       0.10773898 </v>
   <v>       0.53343950       0.06757273       0.10727323 </v>
   <v>       0.73394774       0.06722306       0.10746403 </v>
   <v>       0.93418493       0.06710391       0.10780003 </v>
   <v>       0.13464298       0.26663085       0.10547803 </v>
   <v>       0.33225936       0.26692064       0.10579228 </v>
   <v>       0.53349962       0.26730573       0.10711905 </v>
   <v>       0.73370730       0.26736686       0.10761456 </v>
   <v>       0.93345756       0.26699424       0.10717109 </v>
   <v>       0.13450130       0.46820491       0.10553243 </v>
   <v>       0.33487221       0.46756603       0.10331379 </v>
   <v>       0.53258770       0.46900804       0.10708305 </v>
   <v>       0.73347958       0.46750386       0.10798711 </v>
   <v>       0.93375091       0.46737865       0.10794316 </v>
   <v>       0.13296208       0.66677759       0.10775872 </v>
   <v>       0.33114251       0.66512304       0.10469381 </v>
   <v>       0.53385933       0.66513380       0.10645104 </v>
   <v>       0.73464145       0.66679271       0.10752630 </v>
   <v>       0.93370249       0.66690823       0.10847522 </v>
   <v>       0.13332984       0.86684862       0.10841864 </v>
   <v>       0.33274231       0.86668144       0.10736551 </v>
   <v>       0.53426738       0.86867174       0.10601503 </v>
   <v>       0.73456933       0.86719727       0.10734534 </v>
   <v>       0.93387774       0.86697200       0.10843262 </v>
   <v>       0.13429136       0.06834552       0.26613857 </v>
   <v>       0.33366328       0.06814585       0.26583920 </v>
   <v>       0.53318578       0.06688170       0.26528815 </v>
   <v>       0.73349472       0.06676121       0.26535562 </v>
   <v>       0.93485519       0.06846548       0.26594408 </v>
   <v>       0.13899905       0.27285693       0.26404508 </v>
   <v>       0.33341677       0.27272859       0.26379456 </v>
   <v>       0.53235404       0.26803376       0.26500151 </v>
   <v>       0.73350437       0.26699565       0.26559166 </v>
   <v>       0.93595056       0.26814356       0.26487162 </v>
   <v>       0.13933765       0.46674360       0.26387968 </v>
   <v>       0.52873826       0.46645427       0.26547460 </v>
   <v>       0.73236039       0.46668967       0.26607727 </v>
   <v>       0.93465209       0.46675149       0.26601954 </v>
   <v>       0.13456002       0.66638607       0.26594930 </v>
   <v>       0.33448355       0.66166339       0.26323702 </v>
   <v>       0.53247908       0.67148790       0.26248172 </v>
   <v>       0.73318135       0.66669541       0.26615619 </v>
   <v>       0.93369208       0.66661151       0.26657502 </v>
   <v>       0.13403518       0.86711727       0.26647940 </v>
   <v>       0.33380701       0.86575282       0.26549207 </v>
   <v>       0.53208685       0.86545341       0.26394987 </v>
   <v>       0.73339178       0.86706691       0.26575384 </v>
   <v>       0.93364658       0.86732932       0.26652635 </v>
   <v>       0.44588614       0.56338840       0.33628805 </v>
  </varray>
 </structure>
 <calculation>
  <scstep>
   <time name="dav">  132.88  133.17</time>
   <time name="total">  146.15  146.68</time>
   <dipole>
    <v name="dipole">      0.00000000       0.00000000       0.00006929 </v>
    <i name="Tr[quadrupol]"> -27220.53056033 </i>
    <i name="Echarged">      0.00000000 </i>
    <i name="Edipol_quadrupol">      0.00000000 </i>
    <i name="Eion">      0.00000000 </i>
   </dipole>
   <energy>
    <i name="alphaZ">    714.31394834 </i>
    <i name="ewald"> 143170.04409120 </i>
    <i name="hartreedc">-196377.51195087 </i>
    <i name="XCdc">   2284.76012998 </i>
    <i name="pawpsdc">  48832.71023593 </i>
    <i name="pawaedc"> -48152.77693648 </i>
    <i name="eentropy">     -0.00152512 </i>
    <i name="bandstr">  -5942.69023637 </i>
    <i name="atom">  60999.50596824 </i>
    <i name="e_fr_energy">   5528.35372486 </i>
    <i name="e_wo_entrp">   5528.35524998 </i>
    <i name="e_0_energy">   5528.35423323 </i>
   </energy>
  </scstep>
  <scstep>
   <time name="dav">  144.86  145.13</time>
   <time name="total">  144.87  145.14</time>
   <dipole>
    <v name="dipole">      0.00000000       0.00000000       0.00006929 </v>
    <i name="Tr[quadrupol]"> -27220.53056033 </i>
    <i name="Echarged">      0.00000000 </i>
    <i name="Edipol_quadrupol">      0.00000000 </i>
    <i name="Eion">      0.00000000 </i>
   </dipole>
   <energy>
    <i name="e_fr_energy">    150.58233941 </i>
    <i name="e_wo_entrp">    150.57804751 </i>
    <i name="e_0_energy">    150.58090877 </i>
   </energy>
  </scstep>
  <scstep>
   <time name="dav">  130.82  131.04</time>
   <time name="total">  130.83  131.05</time>
   <dipole>
    <v name="dipole">      0.00000000       0.00000000       0.00006929 </v>
    <i name="Tr[quadrupol]"> -27220.53056033 </i>
    <i name="Echarged">      0.00000000 </i>
    <i name="Edipol_quadrupol">      0.00000000 </i>
    <i name="Eion">      0.00000000 </i>
   </dipole>
   <energy>
    <i name="e_fr_energy">   -397.54159835 </i>
    <i name="e_wo_entrp">   -397.54734480 </i>
    <i name="e_0_energy">   -397.54351383 </i>
   </energy>
  </scstep>
  <scstep>
   <time name="dav">  134.37  134.52</time>
   <time name="total">  134.38  134.54</time>
   <dipole>
    <v name="dipole">      0.00000000       0.00000000       0.00006918 </v>
    <i name="Tr[quadrupol]"> -27236.85249399 </i>
    <i name="Echarged">      0.00000000 </i>
    <i name="Edipol_quadrupol">      0.00000000 </i>
    <i name="Eion">      0.00000000 </i>
   </dipole>
   <energy>
    <i name="e_fr_energy">   -415.37643700 </i>
    <i name="e_wo_entrp">   -415.38135118 </i>
    <i name="e_0_energy">   -415.37807506 </i>
   </energy>
  </scstep>
  <scstep>
   <time name="dav">  141.02  141.19</time>
   <time name="total">  141.03  141.20</time>
   <dipole>
    <v name="dipole">      0.00000000       0.00000000       0.00006918 </v>
    <i name="Tr[quadrupol]"> -27236.85249399 </i>
    <i name="Echarged">      0.00000000 </i>
    <i name="Edipol_quadrupol">      0.00000000 </i>
    <i name="Eion">      0.00000000 </i>
   </dipole>
   <energy>
    <i name="e_fr_energy">   -415.95749116 </i>
    <i name="e_wo_entrp">   -415.96244911 </i>
    <i name="e_0_energy">   -415.95914381 </i>
   </energy>
  </scstep>
  <scstep>
   <time name="dav">  137.54  137.72</time>
   <time name="total">  137.55  137.74</time>
   <dipole>
    <v name="dipole">      0.00000000       0.00000000       0.00006918 </v>
    <i name="Tr[quadrupol]"> -27236.85249399 </i>
    <i name="Echarged">      0.00000000 </i>
    <i name="Edipol_quadrupol">      0.00000000 </i>
    <i name="Eion">      0.00000000 </i>
   </dipole>
   <energy>
    <i name="e_fr_energy">   -415.98260386 </i>
    <i name="e_wo_entrp">   -415.98756532 </i>
    <i name="e_0_energy">   -415.98425768 </i>
   </energy>
  </scstep>
  <scstep>
   <time name="dav">  138.85  139.05</time>
   <time name="total">  138.86  139.06</time>
   <dipole>
    <v name="dipole">      0.00000000       0.00000000       0.00006918 </v>
    <i name="Tr[quadrupol]"> -27236.85249399 </i>
    <i name="Echarged">      0.00000000 </i>
    <i name="Edipol_quadrupol">      0.00000000 </i>
    <i name="Eion">      0.00000000 </i>
   </dipole>
   <energy>
    <i name="e_fr_energy">   -415.98381034 </i>
    <i name="e_wo_entrp">   -415.98877204 </i>
    <i name="e_0_energy">   -415.98546424 </i>
   </energy>
  </scstep>
  <scstep>
   <time name="dav">  130.40  130.56</time>
   <time name="total">  130.41  130.57</time>
   <dipole>
    <v name="dipole">      0.00000000       0.00000000       0.00006918 </v>
    <i name="Tr[quadrupol]"> -27236.85249399 </i>
    <i name="Echarged">      0.00000000 </i>
    <i name="Edipol_quadrupol">      0.00000000 </i>
    <i name="Eion">      0.00000000 </i>
   </dipole>
   <energy>
    <i name="e_fr_energy">   -415.98386665 </i>
    <i name="e_wo_entrp">   -415.98882837 </i>
    <i name="e_0_energy">   -415.98552056 </i>
   </energy>
  </scstep>
  <scstep>
   <time name="dav">  117.51  118.12</time>
   <time name="total">  117.52  118.13</time>
   <dipole>
    <v name="dipole">      0.00000000       0.00000000       0.00006918 </v>
    <i name="Tr[quadrupol]"> -27236.85249399 </i>
    <i name="Echarged">      0.00000000 </i>
    <i name="Edipol_quadrupol">      0.00000000 </i>
    <i name="Eion">      0.00000000 </i>
   </dipole>
   <energy>
    <i name="e_fr_energy">   -415.98386978 </i>
    <i name="e_wo_entrp">   -415.98883150 </i>
    <i name="e_0_energy">   -415.98552369 </i>
   </energy>
  </scstep>
  <scstep>
   <time name="dav">  103.96  104.10</time>
   <time name="total">  112.03  112.18</time>
   <dipole>
    <v name="dipole">      0.00000000       0.00000000       0.00006918 </v>
    <i name="Tr[quadrupol]"> -27236.85249399 </i>
    <i name="Echarged">      0.00000000 </i>
    <i name="Edipol_quadrupol">      0.00000000 </i>
    <i name="Eion">      0.00000000 </i>
   </dipole>
   <energy>
    <i name="e_fr_energy">   -415.98386995 </i>
    <i name="e_wo_entrp">   -415.98883166 </i>
    <i name="e_0_energy">   -415.98552385 </i>
   </energy>
  </scstep>
  <scstep>
   <time name="dav">  121.85  121.99</time>
   <time name="total">  142.07  142.26</time>
   <dipole>
    <v name="dipole">      0.00000000       0.00000000      -0.13045725 </v>
    <i name="Tr[quadrupol]"> -27235.84477765 </i>
    <i name="Echarged">      0.00000000 </i>
    <i name="Edipol_quadrupol">      0.00000000 </i>
    <i name="Eion">      0.00000000 </i>
   </dipole>
   <energy>
    <i name="e_fr_energy">   -384.19434642 </i>
    <i name="e_wo_entrp">   -384.17071642 </i>
    <i name="e_0_energy">   -384.18646976 </i>
   </energy>
  </scstep>
  <scstep>
   <time name="dav">  122.45  122.60</time>
   <time name="total">  142.04  142.21</time>
   <dipole>
    <v name="dipole">      0.00000000       0.00000000      -0.55125090 </v>
    <i name="Tr[quadrupol]"> -27244.54893373 </i>
    <i name="Echarged">      0.00000000 </i>
    <i name="Edipol_quadrupol">      0.00000000 </i>
    <i name="Eion">      0.00000000 </i>
   </dipole>
   <energy>
    <i name="e_fr_energy">   -388.15543215 </i>
    <i name="e_wo_entrp">   -388.15144812 </i>
    <i name="e_0_energy">   -388.15410414 </i>
   </energy>
  </scstep>
  <scstep>
   <time name="dav">  120.37  120.51</time>
   <time name="total">  140.25  140.44</time>
   <dipole>
    <v name="dipole">      0.00000000       0.00000000      -0.27244867 </v>
    <i name="Tr[quadrupol]"> -27243.86508728 </i>
    <i name="Echarged">      0.00000000 </i>
    <i name="Edipol_quadrupol">      0.00000000 </i>
    <i name="Eion">      0.00000000 </i>
   </dipole>
   <energy>
    <i name="e_fr_energy">   -385.67864813 </i>
    <i name="e_wo_entrp">   -385.68289593 </i>
    <i name="e_0_energy">   -385.68006406 </i>
   </energy>
  </scstep>
  <scstep>
   <time name="dav">  123.33  123.48</time>
   <time name="total">  143.00  143.19</time>
   <dipole>
    <v name="dipole">      0.00000000       0.00000000      -0.44913197 </v>
    <i name="Tr[quadrupol]"> -27245.10409287 </i>
    <i name="Echarged">      0.00000000 </i>
    <i name="Edipol_quadrupol">      0.00000000 </i>
    <i name="Eion">      0.00000000 </i>
   </dipole>
   <energy>
    <i name="e_fr_energy">   -388.94258062 </i>
    <i name="e_wo_entrp">   -388.94563751 </i>
    <i name="e_0_energy">   -388.94359958 </i>
   </energy>
  </scstep>
  <scstep>
   <time name="dav">  117.56  117.70</time>
   <time name="total">  137.13  137.31</time>
   <dipole>
    <v name="dipole">      0.00000000       0.00000000      -0.40262185 </v>
    <i name="Tr[quadrupol]"> -27246.05136471 </i>
    <i name="Echarged">      0.00000000 </i>
    <i name="Edipol_quadrupol">      0.00000000 </i>
    <i name="Eion">      0.00000000 </i>
   </dipole>
   <energy>
    <i name="e_fr_energy">   -391.06482138 </i>
    <i name="e_wo_entrp">   -391.06861909 </i>
    <i name="e_0_energy">   -391.06608728 </i>
   </energy>
  </scstep>
  <scstep>
   <time name="dav">  117.52  117.66</time>
   <time name="total">  137.17  137.34</time>
   <dipole>
    <v name="dipole">      0.00000000       0.00000000      -0.36556486 </v>
    <i name="Tr[quadrupol]"> -27247.16953123 </i>
    <i name="Echarged">      0.00000000 </i>
    <i name="Edipol_quadrupol">      0.00000000 </i>
    <i name="Eion">      0.00000000 </i>
   </dipole>
   <energy>
    <i name="e_fr_energy">   -393.24829613 </i>
    <i name="e_wo_entrp">   -393.25182390 </i>
    <i name="e_0_energy">   -393.24947205 </i>
   </energy>
  </scstep>
  <scstep>
   <time name="dav">  124.37  124.51</time>
   <time name="total">  144.06  144.23</time>
   <dipole>
    <v name="dipole">      0.00000000       0.00000000      -0.30315886 </v>
    <i name="Tr[quadrupol]"> -27248.41357823 </i>
    <i name="Echarged">      0.00000000 </i>
    <i name="Edipol_quadrupol">      0.00000000 </i>
    <i name="Eion">      0.00000000 </i>
   </dipole>
   <energy>
    <i name="e_fr_energy">   -395.22373721 </i>
    <i name="e_wo_entrp">   -395.23048989 </i>
    <i name="e_0_energy">   -395.22598810 </i>
   </energy>
  </scstep>
  <scstep>
   <time name="dav">  124.63  124.79</time>
   <time name="total">  144.26  144.57</time>
   <dipole>
    <v name="dipole">      0.00000000       0.00000000      -0.28260762 </v>
    <i name="Tr[quadrupol]"> -27249.05793531 </i>
    <i name="Echarged">      0.00000000 </i>
    <i name="Edipol_quadrupol">      0.00000000 </i>
    <i name="Eion">      0.00000000 </i>
   </dipole>
   <energy>
    <i name="e_fr_energy">   -395.72368196 </i>
    <i name="e_wo_entrp">   -395.73078657 </i>
    <i name="e_0_energy">   -395.72605016 </i>
   </energy>
  </scstep>
  <scstep>
   <time name="dav">  120.43  120.57</time>
   <time name="total">  140.19  140.35</time>
   <dipole>
    <v name="dipole">      0.00000000       0.00000000      -0.24873512 </v>
    <i name="Tr[quadrupol]"> -27249.37834629 </i>
    <i name="Echarged">      0.00000000 </i>
    <i name="Edipol_quadrupol">      0.00000000 </i>
    <i name="Eion">      0.00000000 </i>
   </dipole>
   <energy>
    <i name="e_fr_energy">   -395.82252228 </i>
    <i name="e_wo_entrp">   -395.82954536 </i>
    <i name="e_0_energy">   -395.82486331 </i>
   </energy>
  </scstep>
  <scstep>
   <time name="dav">  121.47  121.64</time>
   <time name="total">  141.18  141.39</time>
   <dipole>
    <v name="dipole">      0.00000000       0.00000000      -0.21112230 </v>
    <i name="Tr[quadrupol]"> -27249.57593168 </i>
    <i name="Echarged">      0.00000000 </i>
    <i name="Edipol_quadrupol">      0.00000000 </i>
    <i name="Eion">      0.00000000 </i>
   </dipole>
   <energy>
    <i name="e_fr_energy">   -395.83745764 </i>
    <i name="e_wo_entrp">   -395.84443812 </i>
    <i name="e_0_energy">   -395.83978447 </i>
   </energy>
  </scstep>
  <scstep>
   <time name="dav">  121.68  121.83</time>
   <time name="total">  141.26  141.44</time>
   <dipole>
    <v name="dipole">      0.00000000       0.00000000      -0.19598627 </v>
    <i name="Tr[quadrupol]"> -27249.63817635 </i>
    <i name="Echarged">      0.00000000 </i>
    <i name="Edipol_quadrupol">      0.00000000 </i>
    <i name="Eion">      0.00000000 </i>
   </dipole>
   <energy>
    <i name="e_fr_energy">   -395.83426620 </i>
    <i name="e_wo_entrp">   -395.84118313 </i>
    <i name="e_0_energy">   -395.83657184 </i>
   </energy>
  </scstep>
  <scstep>
   <time name="dav">  117.70  117.84</time>
   <time name="total">  137.20  137.36</time>
   <dipole>
    <v name="dipole">      0.00000000       0.00000000      -0.18914345 </v>
    <i name="Tr[quadrupol]"> -27249.67305611 </i>
    <i name="Echarged">      0.00000000 </i>
    <i name="Edipol_quadrupol">      0.00000000 </i>
    <i name="Eion">      0.00000000 </i>
   </dipole>
   <energy>
    <i name="e_fr_energy">   -395.83050123 </i>
    <i name="e_wo_entrp">   -395.83730830 </i>
    <i name="e_0_energy">   -395.83277026 </i>
   </energy>
  </scstep>
  <scstep>
   <time name="dav">  121.81  121.96</time>
   <time name="total">  141.53  141.72</time>
   <dipole>
    <v name="dipole">      0.00000000       0.00000000      -0.17921891 </v>
    <i name="Tr[quadrupol]"> -27249.70894900 </i>
    <i name="Echarged">      0.00000000 </i>
    <i name="Edipol_quadrupol">      0.00000000 </i>
    <i name="Eion">      0.00000000 </i>
   </dipole>
   <energy>
    <i name="e_fr_energy">   -395.83026991 </i>
    <i name="e_wo_entrp">   -395.83705016 </i>
    <i name="e_0_energy">   -395.83252999 </i>
   </energy>
  </scstep>
  <scstep>
   <time name="dav">  125.39  125.54</time>
   <time name="total">  145.04  145.22</time>
   <dipole>
    <v name="dipole">      0.00000000       0.00000000      -0.17260388 </v>
    <i name="Tr[quadrupol]"> -27249.75131187 </i>
    <i name="Echarged">      0.00000000 </i>
    <i name="Edipol_quadrupol">      0.00000000 </i>
    <i name="Eion">      0.00000000 </i>
   </dipole>
   <energy>
    <i name="e_fr_energy">   -395.83064852 </i>
    <i name="e_wo_entrp">   -395.83742371 </i>
    <i name="e_0_energy">   -395.83290692 </i>
   </energy>
  </scstep>
  <scstep>
   <time name="dav">  127.04  127.19</time>
   <time name="total">  146.74  146.93</time>
   <dipole>
    <v name="dipole">      0.00000000       0.00000000      -0.16909194 </v>
    <i name="Tr[quadrupol]"> -27249.80669878 </i>
    <i name="Echarged">      0.00000000 </i>
    <i name="Edipol_quadrupol">      0.00000000 </i>
    <i name="Eion">      0.00000000 </i>
   </dipole>
   <energy>
    <i name="e_fr_energy">   -395.83130042 </i>
    <i name="e_wo_entrp">   -395.83805654 </i>
    <i name="e_0_energy">   -395.83355246 </i>
   </energy>
  </scstep>
  <scstep>
   <time name="dav">  120.39  120.55</time>
   <time name="total">  140.18  140.37</time>
   <dipole>
    <v name="dipole">      0.00000000       0.00000000      -0.16634627 </v>
    <i name="Tr[quadrupol]"> -27249.89385671 </i>
    <i name="Echarged">      0.00000000 </i>
    <i name="Edipol_quadrupol">      0.00000000 </i>
    <i name="Eion">      0.00000000 </i>
   </dipole>
   <energy>
    <i name="e_fr_energy">   -395.83171872 </i>
    <i name="e_wo_entrp">   -395.83847051 </i>
    <i name="e_0_energy">   -395.83396932 </i>
   </energy>
  </scstep>
  <scstep>
   <time name="dav">  121.09  121.25</time>
   <time name="total">  140.73  140.92</time>
   <dipole>
    <v name="dipole">      0.00000000       0.00000000      -0.16570635 </v>
    <i name="Tr[quadrupol]"> -27249.97377005 </i>
    <i name="Echarged">      0.00000000 </i>
    <i name="Edipol_quadrupol">      0.00000000 </i>
    <i name="Eion">      0.00000000 </i>
   </dipole>
   <energy>
    <i name="e_fr_energy">   -395.83183564 </i>
    <i name="e_wo_entrp">   -395.83858096 </i>
    <i name="e_0_energy">   -395.83408408 </i>
   </energy>
  </scstep>
  <scstep>
   <time name="dav">  108.91  109.04</time>
   <time name="total">  128.64  128.80</time>
   <dipole>
    <v name="dipole">      0.00000000       0.00000000      -0.16652524 </v>
    <i name="Tr[quadrupol]"> -27250.08114687 </i>
    <i name="Echarged">      0.00000000 </i>
    <i name="Edipol_quadrupol">      0.00000000 </i>
    <i name="Eion">      0.00000000 </i>
   </dipole>
   <energy>
    <i name="e_fr_energy">   -395.83182890 </i>
    <i name="e_wo_entrp">   -395.83857028 </i>
    <i name="e_0_energy">   -395.83407603 </i>
   </energy>
  </scstep>
  <scstep>
   <time name="dav">  113.97  114.10</time>
   <time name="total">  133.49  133.65</time>
   <dipole>
    <v name="dipole">      0.00000000       0.00000000      -0.16699547 </v>
    <i name="Tr[quadrupol]"> -27250.16478669 </i>
    <i name="Echarged">      0.00000000 </i>
    <i name="Edipol_quadrupol">      0.00000000 </i>
    <i name="Eion">      0.00000000 </i>
   </dipole>
   <energy>
    <i name="e_fr_energy">   -395.83176414 </i>
    <i name="e_wo_entrp">   -395.83850657 </i>
    <i name="e_0_energy">   -395.83401162 </i>
   </energy>
  </scstep>
  <scstep>
   <time name="dav">  115.43  115.59</time>
   <time name="total">  135.32  135.50</time>
   <dipole>
    <v name="dipole">      0.00000000       0.00000000      -0.15227308 </v>
    <i name="Tr[quadrupol]"> -27233.30893045 </i>
    <i name="Echarged">      0.00000000 </i>
    <i name="Edipol_quadrupol">      0.00000000 </i>
    <i name="Eion">      0.00000000 </i>
   </dipole>
   <energy>
    <i name="e_fr_energy">   -396.08068974 </i>
    <i name="e_wo_entrp">   -396.08800585 </i>
    <i name="e_0_energy">   -396.08312845 </i>
   </energy>
  </scstep>
  <scstep>
   <time name="dav">  121.39  121.54</time>
   <time name="total">  141.06  141.24</time>
   <dipole>
    <v name="dipole">      0.00000000       0.00000000      -0.15420838 </v>
    <i name="Tr[quadrupol]"> -27249.84323105 </i>
    <i name="Echarged">      0.00000000 </i>
    <i name="Edipol_quadrupol">      0.00000000 </i>
    <i name="Eion">      0.00000000 </i>
   </dipole>
   <energy>
    <i name="e_fr_energy">   -395.83169197 </i>
    <i name="e_wo_entrp">   -395.83843614 </i>
    <i name="e_0_energy">   -395.83394003 </i>
   </energy>
  </scstep>
  <scstep>
   <time name="dav">   99.90  100.03</time>
   <time name="total">  119.57  119.73</time>
   <dipole>
    <v name="dipole">      0.00000000       0.00000000      -0.15224969 </v>
    <i name="Tr[quadrupol]"> -27249.78121402 </i>
    <i name="Echarged">      0.00000000 </i>
    <i name="Edipol_quadrupol">      0.00000000 </i>
    <i name="Eion">      0.00000000 </i>
   </dipole>
   <energy>
    <i name="e_fr_energy">   -395.83169573 </i>
    <i name="e_wo_entrp">   -395.83844025 </i>
    <i name="e_0_energy">   -395.83394390 </i>
   </energy>
  </scstep>
  <scstep>
   <time name="dav">  105.79  105.91</time>
   <time name="total">  125.42  125.57</time>
   <dipole>
    <v name="dipole">      0.00000000       0.00000000      -0.15360208 </v>
    <i name="Tr[quadrupol]"> -27249.80433169 </i>
    <i name="Echarged">      0.00000000 </i>
    <i name="Edipol_quadrupol">      0.00000000 </i>
    <i name="Eion">      0.00000000 </i>
   </dipole>
   <energy>
    <i name="e_fr_energy">   -395.83167587 </i>
    <i name="e_wo_entrp">   -395.83842111 </i>
    <i name="e_0_energy">   -395.83392428 </i>
   </energy>
  </scstep>
  <scstep>
   <time name="dav">  120.74  120.90</time>
   <time name="total">  140.77  140.97</time>
   <dipole>
    <v name="dipole">      0.00000000       0.00000000      -0.16092175 </v>
    <i name="Tr[quadrupol]"> -27233.31988530 </i>
    <i name="Echarged">      0.00000000 </i>
    <i name="Edipol_quadrupol">      0.00000000 </i>
    <i name="Eion">      0.00000000 </i>
   </dipole>
   <energy>
    <i name="e_fr_energy">   -396.08062945 </i>
    <i name="e_wo_entrp">   -396.08795003 </i>
    <i name="e_0_energy">   -396.08306964 </i>
   </energy>
  </scstep>
  <scstep>
   <time name="dav">  106.59  106.72</time>
   <time name="total">  126.52  126.68</time>
   <dipole>
    <v name="dipole">      0.00000000       0.00000000      -0.16175166 </v>
    <i name="Tr[quadrupol]"> -27233.34427774 </i>
    <i name="Echarged">      0.00000000 </i>
    <i name="Edipol_quadrupol">      0.00000000 </i>
    <i name="Eion">      0.00000000 </i>
   </dipole>
   <energy>
    <i name="e_fr_energy">   -396.08063844 </i>
    <i name="e_wo_entrp">   -396.08795913 </i>
    <i name="e_0_energy">   -396.08307867 </i>
   </energy>
  </scstep>
  <scstep>
   <time name="dav">  110.02  110.16</time>
   <time name="total">  129.97  130.15</time>
   <dipole>
    <v name="dipole">      0.00000000       0.00000000      -0.16101371 </v>
    <i name="Tr[quadrupol]"> -27233.40445141 </i>
    <i name="Echarged">      0.00000000 </i>
    <i name="Edipol_quadrupol">      0.00000000 </i>
    <i name="Eion">      0.00000000 </i>
   </dipole>
   <energy>
    <i name="e_fr_energy">   -396.08061397 </i>
    <i name="e_wo_entrp">   -396.08793454 </i>
    <i name="e_0_energy">   -396.08305416 </i>
   </energy>
  </scstep>
  <scstep>
   <time name="dav">  118.09  118.23</time>
   <time name="total">  137.92  138.09</time>
   <dipole>
    <v name="dipole">      0.00000000       0.00000000      -0.16161936 </v>
    <i name="Tr[quadrupol]"> -27233.44225696 </i>
    <i name="Echarged">      0.00000000 </i>
    <i name="Edipol_quadrupol">      0.00000000 </i>
    <i name="Eion">      0.00000000 </i>
   </dipole>
   <energy>
    <i name="e_fr_energy">   -396.08064825 </i>
    <i name="e_wo_entrp">   -396.08796886 </i>
    <i name="e_0_energy">   -396.08308845 </i>
   </energy>
  </scstep>
  <scstep>
   <time name="dav">  120.77  120.91</time>
   <time name="total">  140.81  140.99</time>
   <dipole>
    <v name="dipole">      0.00000000       0.00000000      -0.16276949 </v>
    <i name="Tr[quadrupol]"> -27233.47590903 </i>
    <i name="Echarged">      0.00000000 </i>
    <i name="Edipol_quadrupol">      0.00000000 </i>
    <i name="Eion">      0.00000000 </i>
   </dipole>
   <energy>
    <i name="e_fr_energy">   -396.08068304 </i>
    <i name="e_wo_entrp">   -396.08800400 </i>
    <i name="e_0_energy">   -396.08312336 </i>
   </energy>
  </scstep>
  <scstep>
   <time name="dav">  102.65  102.77</time>
   <time name="total">  122.66  122.80</time>
   <dipole>
    <v name="dipole">      0.00000000       0.00000000      -0.16447360 </v>
    <i name="Tr[quadrupol]"> -27233.50161180 </i>
    <i name="Echarged">      0.00000000 </i>
    <i name="Edipol_quadrupol">      0.00000000 </i>
    <i name="Eion">      0.00000000 </i>
   </dipole>
   <energy>
    <i name="e_fr_energy">   -396.08069816 </i>
    <i name="e_wo_entrp">   -396.08801947 </i>
    <i name="e_0_energy">   -396.08313860 </i>
   </energy>
  </scstep>
  <scstep>
   <time name="dav">  109.24  109.38</time>
   <time name="total">  129.29  129.46</time>
   <dipole>
    <v name="dipole">      0.00000000       0.00000000      -0.16587206 </v>
    <i name="Tr[quadrupol]"> -27233.50669510 </i>
    <i name="Echarged">      0.00000000 </i>
    <i name="Edipol_quadrupol">      0.00000000 </i>
    <i name="Eion">      0.00000000 </i>
   </dipole>
   <energy>
    <i name="e_fr_energy">   -396.08072036 </i>
    <i name="e_wo_entrp">   -396.08804189 </i>
    <i name="e_0_energy">   -396.08316087 </i>
   </energy>
  </scstep>
  <scstep>
   <time name="dav">  102.01  102.14</time>
   <time name="total">  121.96  122.13</time>
   <dipole>
    <v name="dipole">      0.00000000       0.00000000      -0.16722570 </v>
    <i name="Tr[quadrupol]"> -27233.51780333 </i>
    <i name="Echarged">      0.00000000 </i>
    <i name="Edipol_quadrupol">      0.00000000 </i>
    <i name="Eion">      0.00000000 </i>
   </dipole>
   <energy>
    <i name="e_fr_energy">   -396.08073130 </i>
    <i name="e_wo_entrp">   -396.08805295 </i>
    <i name="e_0_energy">   -396.08317185 </i>
   </energy>
  </scstep>
  <scstep>
   <time name="dav">  100.49  100.62</time>
   <time name="total">  112.37  112.52</time>
   <dipole>
    <v name="dipole">      0.00000000       0.00000000      -0.16735451 </v>
    <i name="Tr[quadrupol]"> -27233.54514660 </i>
    <i name="Echarged">      0.00000000 </i>
    <i name="Edipol_quadrupol">      0.00000000 </i>
    <i name="Eion">      0.00000000 </i>
   </dipole>
   <energy>
    <i name="alphaZ">    709.67524447 </i>
    <i name="ewald"> 143170.04409120 </i>
    <i name="hartreedc">-196356.35329582 </i>
    <i name="XCdc">   2265.55744823 </i>
    <i   <time name="dav">  107.24  107.38</time>
   <time name="total">  127.46  127.69</time>
   <dipole>
    <v name="dipole">      0.00000000       0.00000000      -0.14897276 </v>
    <i name="Tr[quadrupol]"> -27272.32694132 </i>
    <i name="Echarged">      0.00000000 </i>
    <i name="Edipol_quadrupol">      0.00000000 </i>
    <i name="Eion">      0.00000000 </i>
   </dipole  <structure>
   <crystal>
    <varray name="basis" >
     <v>      15.62500000       0.00000000       0.00000000 </v>
     <v>      -7.81250000      13.53164693       0.00000000 </v>
     <v>   <time name="dav">  101.43  101.56</time>
   <time name="total">  113.91  114.05</time>
   <dipole>
    <v name="dipole">      0.00000000       0.00000000      -0.14880109 </v>
    <i name="Tr[quadrupol]"> -27272.32979573 </i>
    <i name="Echarged">      0.00000000 </i>
    <i name="Edipol_quadrupol">      0.00000000 </i>
    <i name="Eion">      0.00000000 </i>
   </dipole>
   <energy>
    <i name="alphaZ">    710.75132799 </i>
    <i name="ewald"> 143836.94545471 </i>
    <i name="hartreedc">-197016.29479851 </i>
    <i name="XCdc">   2265.85998000 </i>
    <i   <time name="dav">  101.33  101.46</time>
   <time name="total">  113.22  113.36</time>
   <dipole>
    <v name="dipole">      0.00000000       0.00000000      -0.13248976 </v>
    <i name="Tr[quadrupol]"> -27272.66176660 </i>
    <i name="Echarged">      0.00000000 </i>
    <i name="Edipol_quadrupol">      0.00000000 </i>
    <i name="Eion">      0.00000000 </i>
   </dipole  <structure>
   <crystal>
    <varray name="basis" >
     <v>      15.62500000       0.00000000       0.00000000 </v>
     <v>      -7.81250000      13.53164693       0.00000000 </v>
     <v>   <time name="dav">  100.06  100.18</time>
   <time name="total">  119.90  120.05</time>
   <dipole>
    <v name="dipole">      0.00000000       0.00000000      -0.16404237 </v>
    <i name="Tr[quadrupol]"> -27250.01457608 </i>
    <i name="Echarged">      0.00000000 </i>
    <i name="Edipol_quadrupol">      0.00000000 </i>
    <i name="Eion">      0.00000000 </i>
   </dipole  <structure>
   <crystal>
    <varray name="basis" >
     <v>      15.62500000       0.00000000       0.00000000 </v>
     <v>      -7.81250000      13.53164693       0.00000000 </v>
     <v>   <time name="dav">   99.72   99.84</time>
   <time name="total">  119.51  119.70</time>
   <dipole>
    <v name="dipole">      0.00000000       0.00000000      -0.16489029 </v>
    <i name="Tr[quadrupol]"> -27249.99135053 </i>
    <i name="Echarged">      0.00000000 </i>
    <i name="Edipol_quadrupol">      0.00000000 </i>
    <i name="Eion">      0.00000000 </i>
   </dipole>
   <energy>
    <i name="e_fr_energy">   -395.83178955 </i>
    <i name="e_wo_entrp">   -395.83853414 </i>
    <i name="e_0_energy">   -395.83403775 </i>
   </energy>
  </scstep>
  <scstep>
   <time name="dav">   91.95   92.07</time>
   <time name="total">  111.67  111.82</time>
   <dipole>
    <v name="dipole">      0.00000000       0.00000000      -0.16531676 </v>
    <i name="Tr[quadrupol]"> -27249.99057989 </i>
    <i name="Echarged">      0.00000000 </i>
    <i name="Edipol_quadrupol">      0.00000000 </i>
    <i name="Eion">      0.00000000 </i>
   </dipole>
   <energy>
    <i name="e_fr_energy">   -395.83178825 </i>
    <i name="e_wo_entrp">   -395.83853234 </i>
    <i name="e_0_energy">   -395.83403628 </i>
   </energy>
  </scstep>
  <scstep>
   <time name="dav">   79.70   79.81</time>
   <time name="total">   91.57   91.69</time>
   <dipole>
    <v name="dipole">      0.00000000       0.00000000      -0.16531380 </v>
    <i name="Tr[quadrupol]"> -27249.99078727 </i>
    <i name="Echarged">      0.00000000 </i>
    <i name="Edipol_quadrupol">      0.00000000 </i>
    <i name="Eion">      0.00000000 </i>
   </dipole>
   <energy>
    <i name="alphaZ">    709.42500524 </i>
    <i name="ewald"> 142819.41453318 </i>
    <i name="hartreedc">-196005.83544174 </i>
    <i name="XCdc">   2265.45258325 </i>
    <i name="pawpsdc">  74695.92255707 </i>
    <i name="pawaedc"> -74113.49886795 </i>
    <i name="eentropy">      0.00674409 </i>
    <i name="bandstr"> -11766.22486938 </i>
    <i name="atom">  60999.50596824 </i>
    <i name="e_fr_energy">   -395.83178799 </i>
    <i name="e_wo_entrp">   -395.83853208 </i>
    <i name="e_0_energy">   -395.83403602 </i>
   </energy>
  </scstep>
  <structure>
   <crystal>
    <varray name="basis" >
     <v>      15.62500000       0.00000000       0.00000000 </v>
     <v>      -7.81250000      13.53164693       0.00000000 </v>
     <v>       0.00000000       0.00000000      20.00000000 </v>
    </varray>
    <i name="volume">   4228.63966688 </i>
    <varray name="rec_basis" >
     <v>       0.06400000       0.03695042       0.00000000 </v>
     <v>       0.00000000       0.07390083       0.00000000 </v>
     <v>       0.00000000       0.00000000       0.05000000 </v>
    </varray>
   </crystal>
   <varray name="positions" >
    <v>       0.06804026       0.13488840       0.18653066 </v>
    <v>       0.26677274       0.13464838       0.18641125 </v>
    <v>       0.46648718       0.13400298       0.18646812 </v>
    <v>       0.66678926       0.13371403       0.18648361 </v>
    <v>       0.86741379       0.13392428       0.18657023 </v>
    <v>       0.06901509       0.33465839       0.18459132 </v>
    <v>       0.26827750       0.33799094       0.18191749 </v>
    <v>       0.46579062       0.33465643       0.18474629 </v>
    <v>       0.66641980       0.33382637       0.18669114 </v>
    <v>       0.86726167       0.33383777       0.18668009 </v>
    <v>       0.06787706       0.53347221       0.18648193 </v>
    <v>       0.26850841       0.53070447       0.18172180 </v>
    <v>       0.46137221       0.53124183       0.18381885 </v>
    <v>       0.66562528       0.53369931       0.18687527 </v>
    <v>       0.86668473       0.53342812       0.18746576 </v>
    <v>       0.06700198       0.73344219       0.18748983 </v>
    <v>       0.26663876       0.73237621       0.18597637 </v>
    <v>       0.46484345       0.73258599       0.18327216 </v>
    <v>       0.66789835       0.73348180       0.18646498 </v>
    <v>       0.86687222       0.73348467       0.18763589 </v>
    <v>       0.06704530       0.93391326       0.18755710 </v>
    <v>       0.26696316       0.93366626       0.18714626 </v>
    <v>       0.46661994       0.93358429       0.18599855 </v>
    <v>       0.66663682       0.93323255       0.18627649 </v>
    <v>       0.86712497       0.93408319       0.18728606 </v>
    <v>       0.13329319       0.06657853       0.10798115 </v>
    <v>       0.33290452       0.06675727       0.10773872 </v>
    <v>       0.53340518       0.06746587       0.10734159 </v>
    <v>       0.73383187       0.06714457       0.10752000 </v>
    <v>       0.93400792       0.06694474       0.10783637 </v>
    <v>       0.13420614       0.26630798       0.10520166 </v>
    <v>       0.33211057       0.26648728       0.10542494 </v>
    <v>       0.53354132       0.26711170       0.10708149 </v>
    <v>       0.73362155       0.26736640       0.10766618 </v>
    <v>       0.93320990       0.26687260       0.10712668 </v>
    <v>       0.13402963       0.46806962       0.10518146 </v>
    <v>       0.33377389       0.46683775       0.10203245 </v>
    <v>       0.53303870       0.46869149       0.10631531 </v>
    <v>       0.73344891       0.46754537       0.10808122 </v>
    <v>       0.93356631       0.46736924       0.10795956 </v>
    <v>       0.13288524       0.66682671       0.10777403 </v>
    <v>       0.33114717       0.66532753       0.10442596 </v>
    <v>       0.53407546       0.66553553       0.10612418 </v>
    <v>       0.73446056       0.66689095       0.10775539 </v>
    <v>       0.93356932       0.66690686       0.10858488 </v>
    <v>       0.13327654       0.86682276       0.10846589 </v>
    <v>       0.33276576       0.86667623       0.10742772 </v>
    <v>       0.53418442       0.86853373       0.10615047 </v>
    <v>       0.73440545       0.86713872       0.10753492 </v>
    <v>       0.93370822       0.86687666       0.10855195 </v>
    <v>       0.13429497       0.06841533       0.26611191 </v>
    <v>       0.33361772       0.06817422       0.26585101 </v>
    <v>       0.53314576       0.06685698       0.26533417 </v>
    <v>       0.73345969       0.06676528       0.26541475 </v>
    <v>       0.93488105       0.06853746       0.26596637 </v>
    <v>       0.1  <energy>
   <i name="e_fr_energy">   -396.50127761 </i>
   <i name="e_wo_entrp">   -396.50748826 </i>
   <i name="e_0_energy">   -396.50334783 </i>
  </energy>
  <time name="totalsc"> 6563.66 6575.04</time>
 </calculation>
26563607 </v>
    <v>       0.93601708       0.26819057       0.26482286 </v>
    <v>       0.13956452       0.46668315       0.26356318 </v>
    <v>       0.52796356       0.46644843       0.26477439 </v>
    <v>       0.73213251       0.46668787       0.26613860 </v>
    <v>       0.93465897       0.46673510       0.26602779 </v>
    <v>       0.13448309       0.66625991       0.26592205 </v>
    <v>       0.33398270       0.66097291       0.26285120 </v>
    <v>       0.52976971       0.66689102       0.26128668 </v>
    <v>       0.73274801       0.66649643       0.26627955 </v>
    <v>       0.93362149       0.66658441       0.26666435 </v>
    <v>       0.13400438       0.86710532       0.26652711 </v>
    <v>       0.33375684       0.86563919       0.26551959 </v>
    <v>       0.53193803       0.86502483       0.26404798 </v>
    <v>       0.73309188       0.86687553       0.26589685 </v>
    <v>  <energy>
   <i name="e_fr_energy">   -398.87216509 </i>
   <i name="e_wo_entrp">   -398.89488677 </i>
   <i name="e_0_energy">   -398.87973898 </i>
  </energy>
  <time name="totalsc"> 6564.83 6576.26</time>
 </calculation>
0010939 </v>
   <v>      -0.00130492       0.00261792       0.00138753 </v>
   <v>      -0.00159212       0.00418942      -0.00116115 </v>
   <v>      -0.00095875       0.00232689      -0.00290244 </v>
   <v>      -0.00004232       0.00246993      -0.00247405 </v>
   <v>      -0.00113216       0.00302394      -0.00059650 </v>
   <v>      -0.004  <energy>
   <i name="e_fr_energy">   -398.56317087 </i>
   <i name="e_wo_entrp">   -398.57388712 </i>
   <i name="e_0_energy">   -398.56674296 </i>
  </energy>
  <time name="totalsc"> 6563.11 6576.44</time>
 </calculation>
308 </v>
   <v>      -0.00004260       0.00165228      -0.00146173 </v>
   <v>      -0.00436521       0.00523133       0.00626555 </v>
   <v>      -0.00833941       0.02875173       0.06104236 </v>
   <v>       0.00056885       0.00424911       0.01329088 </v>
   <v>      -0.00102956       0.00202101       0.00055566 </v>
   <v>      -0.0001001  <energy>
   <i name="e_fr_energy">   -395.77484590 </i>
   <i name="e_wo_entrp">   -395.78931694 </i>
   <i name="e_0_energy">   -395.77966958 </i>
  </energy>
  <time name="totalsc"> 6563.60 6575.18</time>
 </calculation>
</v>
   <v>       0.00100370       0.00411088       0.00182752 </v>
   <v>      -0.00005574       0.00285751       0.00025666 </v>
   <v>      -0.00142609       0.00247972      -0.00145588 </v>
   <v>      -0.00433371       0.00533837      -0.00445506 </v>
   <v>      -0.00017015       0.00392255      -0.00247127 </v>
   <v>       0.00137032       0.00398841      -0.00183291 </v>
   <v>       0.00024151       0.00338797      -0.00003726 </v>
   <v>      -0.00228861       0.00428723      -0.00083911 </v>
   <v>      -0.00233540       0.00492415      -0.00353819 </v>
   <v>       0.00035747       0.00256040      -0.00280785 </v>
   <v>       0.00126925       0.00318479      -0.00172290 </v>
   <v>       0.00393269       0.00554252       0.00153883 </v>
   <v>       0.00085986       0.00981585       0.00903367 </v>
   <v>      -0.00677261       0.00797872       0.00306699 </v>
   <v>      -0.00206257         <energy>
   <i name="e_fr_energy">   -396.84824699 </i>
   <i name="e_wo_entrp">   -396.85412981 </i>
   <i name="e_0_energy">   -396.85020793 </i>
  </energy>
  <time name="totalsc"> 6561.99 6576.43</time>
 </calculation>
<v>      -0.01799709       0.01111302       0.03326060 </v>
   <v>      -0.00625071       0.00363785       0.00388339 </v>
   <v>      -0.00128556       0.00225217      -0.00091566 </v>
   <v>       0.00035712       0.00165617      -0.00099682 </v>
   <v>       0.00223623       0.00065757       0.00320979 </v>
   <v>      -0.00240885      -0.00  <energy>
   <i name="e_fr_energy">   -397.92332988 </i>
   <i name="e_wo_entrp">   -397.93739154 </i>
   <i name="e_0_energy">   -397.92801710 </i>
  </energy>
  <time name="totalsc"> 6564.63 6575.74</time>
 </calculation>
     -0.00243368       0.00159676      -0.00260356 </v>
   <v>      -0.00140509       0.00264862      -0.00221402 </v>
   <v>       0.00173359       0.00201634      -0.00309593 </v>
   <v>       0.00107408       0.00104958      -0.00016172 </v>
   <v>      -0.00069108       0.00138993       0.00038693 </v>
   <v>      -0.00077117       0.00152185      -0.00077077 </v>
   <v>      -0.00152658       0.00266970      -0.00274906 </v>
   <v>      -0.00046285       0.00325074      -0.00217699 </v>
   <v>      -0.00076481       0.00262008      -0.00120715 </v>
   <v>      -0.00751739      -0.00306518       0.00516383 </v>
   <v>       0.00116371      -0.00379945       0.00871671 </v>
   <v>       0.00325388      -0.00065399       0.00413398 </v>
   <v>       0.00058543       0.00111598      -0.00135710 </v>
   <v>      -0.00124042       0.00164817      -0.00216584 </v>
   <v>      -0.00352217       0.00089688    <energy>
   <i name="e_fr_energy">   -395.85903404 </i>
   <i name="e_wo_entrp">   -395.87323169 </i>
   <i name="e_0_energy">   -395.86376659 </i>
  </energy>
  <time name="totalsc"> 6565.08 6576.69</time>
 </calculation>
00012537       0.00164378      -0.00111804 </v>
   <v>      -0.00185809       0.00406401       0.00330163 </v>
   <v>       0.01292440       0.10091140       0.02849604 </v>
   <v>       0.00213814       0.00789517       0.00351761 </v>
   <v>       0.00096558       0.00203687       0.00068064 </v>
   <v>       0.00072003       0.00205701      -0.00067533 </v>
   <v>      -0.00170692       0.00317900      -0.00203671 </v>
   <v>      -0.00602870       0.01349365      -0.00250755 </v>
   <v>       0.00282631       0.00854854      -0.00171006 </v>
   <v>       0.00029897       0.00433047       0.00047804 </v>
   <v>       0.02751844      -0.36429282      -0.25179046 </v>
  </varray>
  <varray name="stress" >
   <v>       8.22290305       0.10855598       0.04484278 </v>
   <v>       0.10855595       8.37230786      -0.40756399 </v>
   <v>       0.04484278      -0.40756395      -0.69142632 </v>
  </varray>
  <energy>
   <i name="e_fr_energy">   -395.83178799 </i>
   <i name="e_wo_entrp">   -395.83853208 </i>
   <i name="e_0_energy">   -395.83403602 </i>
  </energy>
  <time name="totalsc"> 65   <time name="dav">  114.95  115.11</time>
   <time name="total">  134.62  134.83</time>
   <di   <time name="total">  134.96  135.19</time>
   <dipole>
    <v name="dipole">      0.00000000       0.0000   <time name="total">  135.42  135.73</time>
   <dipole>
    <v name="dipole">      0.00000000       0.00000000      -0.14930312 </v>
    <i name="Tr[quadrupol]"> -27272.53558885 </i>
    <i name="Echarged">      0.00000000 </i>
    <i name="Edipol_quadrupol">      0.00000000 </i>
    <i name="Eion">      0.00000000 </i>
   </dipole>
   <energy>
    <i name="alphaZ">    711.02099443 </i>
    <i name="ewald"> 143837.15866022 </i>
    <i name="hartreedc">-197016.52482604 </i>
    <i name="XCdc">   2265.86069711 </i>
    <i name="pawpsdc">  74756.64192397 </i>
    <i name="pawaedc"> -74174.58215964 </i>
    <i name="eentropy">      0.00588247 </i>
    <i name="bandstr"> -11775.93568122 </i>
    <i name="atom">  60999.50596824 </i>
    <i name="e_fr_   <time name="dav">  126.35  126.51</time>
   <time name="total">  145.99  146.18</time>
   <dipole>
    <v name="dipole">      0.000000   <time name="total">  147.76  147.95</time>
   <dipole>
    <v na   <time name="total">  147.14  147.33</time>
   <dipole>
    <v name="dipole">      0.00000000       0.00000000      -0.16738421 </v>
    <i name="Tr[quadrupol]"> -27250.24753517 </i>
    <i name="Echarged">      0.00000000 </i>
    <i name="Edipol_quadrupol">      0.00000000 </i>
    <i name="Eion">      0.00000000 </i>
   </dipole>
   <energy>
    <i name="e_fr_   <time name="dav">  112.68  112.82</time>
   <time name="total">  12   <time name="total">    <time name="dav">  120.19    <time name="   <time name="total">  139.84  140.00</time>
   <dipole>
    <v name="dipole">      0.00000000       0.00000000      -0.15647697 </v>
    <i name="Tr[quadrupol]"> -27257.65242807 </i>
    <i name="Echarged">      0.00000000 </i>
    <i name="Edipol_quadrupol">      0.00000000 </i>
    <i name="Eion">      0.00000000 </i>
   </dipole>
   <energy>
    <i name="e_fr_energy">   -395.81384411 </i>
    <i name="e_wo_entrp">   -395.83233781 </i>
    <i name="e_0   <time name="dav">   96.10   96.22</time>
   <time name="total">    <time name="dav">   97.63   97.75</time>
   <time name="total">  117.23  117.38</time>
   <dipole>
    <v name="dipole">      0.00000000       0.00000000      -0.15686181 </v>
    <i name="Tr[quadrupol]"> -27257.65424542 </i>
    <i name="Echarged">      0.00000000 </i>
    <i name="Edipol_quadrupol">      0.00000000 </i>
    <i name="Eion">      0.00000000 </i>
   </dipole>
   <energy>
    <i name="e_fr_energy">   -395.81385113 </i>
    <i name="e_wo_entrp">   -395.83236611 </i>
    <i name="e_0   <time name="dav">   88.38   88.48</time>
   <time name="total">    <time name="dav">   99.20   99.32</time>
   <time name="total">  118.68  118.83</time>
   <dipole>
    <v name="dipole">      0.00000000       0.00000000      -0.15733338 </v>
    <i name="Tr[quadrupol]"> -27257.65830092 </i>
    <i name="Echarged">      0.00000000 </i>
    <i name="Edipol_quadrupol">      0.00000000 </i>
    <i name="Eion">      0.00000000 </i>
   </dipole>
   <energy>
    <i name="e_fr_energy">   -395.81386165 </i>
    <  <structure>
   <crystal>
    <varray name="basis" >
       <time name="dav">   98.73   98.87</time>
   <time name="total">    <time name="dav">   98.74   98.86</time>
   <time name="total">  118.26  118.43</time>
   <dipole>
    <v name="dipole">      0.00000000       0.00000000      -0.15763784 </v>
    <i name="Tr[quadrupol]"> -27257.66027801 </i>
    <i name="Echarged">      0.00000000 </i>
    <i name="Edipol_quadrupol">      0.00000000 </i>
    <i name="Eion">      0.00000000 </i>
   </dipole>
   <energy>
    <i name="e_fr_energy">   -395.81386727 </i>
    <i name="e_wo_entrp">   -395.83240322 </i>
    <i name="e_0   <time name="dav">   96.48   96.60</time>
   <time name="total">    <time name="dav">   95.94   96.05</time>
   <time name="total">  115.42  115.56</time>
   <dipole>
    <v name="dipole">      0.00000000       0.00000000      -0.15789429 </v>
    <i name="Tr[quadrupol]"> -27257.66227734 </i>
    <i name="Echarged">      0.00000000 </i>
    <i name="Edipol_quadrupol">      0.00000000 </i>
    <i name="Eion">      0.00000000 </i>
   </dipole>
   <energy>
    <i name="e_fr_energy">   -395.81387172 </i>
    <i name="e_wo_entrp">   -395.83238849 </i>
    <i name="e_0   <time name="dav">   88.75   88.86</time>
   <time name="total">    <time name="dav">   96.15   96.26</time>
   <time name="total">  115.62  115.77</time>
   <dipole>
    <v name="dipole">      0.00000000       0.00000000      -0.15814260 </v>
    <i name="Tr[quadrupol]"> -27257.66457057 </i>
    <i name="Echarged">      0.00000000 </i>
    <i name="Edipol_quadrupol">      0.00000000 </i>
    <i name="Eion">      0.00000000 </i>
   </dipole>
   <energy>
    <i name="e_fr_energy">   -395.81387518 </i>
    <i name="e_wo_entrp">   -395.83239207 </i>
    <i name="e_0_energy">   -395.82004748 </i>
   </energy>
  </scstep>
  <scstep>
   <time name="dav">   95.94   96.05</time>
   <time name="total">  115.41  115.55</time>
   <dipole>
    <v name="dipole">      0.00000000       0.00000000      -0.15824922 </v>
    <i name="Tr[quadrupol]"> -27257.64520877 </i>
    <i name="Echarged">      0.00000000 </i>
    <i name="Edipol_quadrupol">      0.00000000 </i>
    <i name="Eion">      0.00000000 </i>
   </dipole>
   <energy>
    <i name="e_fr_energy">   -395.81387728 </i>
    <i name="e_wo_entrp">   -395.83239572 </i>
    <i name="e_0_energy">   -395.82005009 </i>
   </energy>
  </scstep>
  <scstep>
   <time name="dav">   95.37   95.49</time>
   <time name="total">  114.96  115.11</time>
   <dipole>
    <v name="dipole">      0.00000000       0.00000000      -0.15855180 </v>
    <i name="Tr[quadrupol]"> -27257.64736085 </i>
    <i name="Echarged">      0.00000000 </i>
    <i name="Edipol_quadrupol">      0.00000000 </i>
    <i name="Eion">      0.00000000 </i>
   </dipole>
   <energy>
    <i name="e_fr_energy">   -395.81387911 </i>
    <i name="e_wo_entrp">   -395.83239560 </i>
    <i name="e_0_energy">   -395.82005128 </i>
   </energy>
  </scstep>
  <scstep>
   <time name="dav">   97.22   97.33</tim      <time name="total">  116.64  116.78</t   <time name="total">  117.57  117.73</time>
   <dipole>
    <v name="dipole">      0.00000000       0.00000000      -0.16848206 </v>
    <i name="Tr[quadrupol]"> -27260.30914258 </i>
    <i name="Echarged">      0.00000000 </i>
[...]
    <v>       0.53524909       0.26928810       0.26614052 </v>
    <v>       0.73521167       0.26855688       0.26626887 </v>
    <v>       0.93604227       0.26906066       0.26655134 </v>
    <v>       0.13862011       0.46934470       0.26635997 </v>
    <v>       0.53351562       0.46949130       0.26540298 </v>
    <v>       0.73499758       0.46876282       0.26638740 </v>
    <v>       0.93576925       0.46868988       0.26679309 </v>
    <v>       0.13592986       0.66893087       0.26676327 </v>
    <v>       0.33659851       0.66731841       0.26559082 </v>
    <v>       0.53361371       0.66721303       0.26487411 </v>
    <v>       0.73517744       0.66894663       0.26600823 </v>
    <v>       0.93528166       0.66871996       0.26666295 </v>
    <v>       0.13556047       0.86879253       0.26691099 </v>
    <v>       0.33590623       0.86871790       0.26638354 </v>
    <v>       0.53534699       0.86828047       0.26530523 </v>
    <v>       0.73496346       0.86863391       0.26590770 </v>
    <v>       0.93514192       0.86872676       0.26665075 </v>
    <v>       0.33900029       0.47178991       0.28143501 </v>
   </varray>
  </structure>
  <varray name="forces" >
   <v>      -0.00301216      -0.00341331      -0.00933460 </v>
   <v>       0.00623994      -0.00202256      -0.00793234 </v>
   <v>       0.00528364       0.00278698       0.00196819 </v>
   <v>       0.00295366       0.00454065       0.00979590 </v>
   <v>       0.00079300       0.00196471       0.00423371 </v>
   <v>      -0.00187139       0.00222488      -0.01292058 </v>
   <v>      -0.00477782      -0.02489628      -0.03221320 </v>
   <v>       0.00289096       0.00136936      -0.00595301 </v>
   <v>       0.00435069       0.00573378       0.00360935 </v>
   <v>       0.00180026       0.00550626      -0.00061689 </v>
   <v>      -0.00343001       0.00434594      -0.00327421 </v>
   <v>      -0.01488292      -0.00136577      -0.01791422 </v>
   <v>      -0.01374763      -0.01243337       0.01504423 </v>
   <v>      -0.00114135       0.00350042       0.00380478 </v>
   <v>       0.00103946       0.00583352       0.00097820 </v>
   <v>       0.00156594       0.00470086       0.00054639 </v>
   <v>       0.00233231       0.00261235       0.00068448 </v>
   <v>       0.00209341      -0.00390226       0.01086189 </v>
   <v>      -0.00098770      -0.00384819       0.01052827 </v>
   <v>       0.00106423       0.00303373       0.00496225 </v>
   <v>       0.00253260       0.00195273      -0.00082484 </v>
   <v>       0.00561877       0.00200165       0.00110322 </v>
   <v>       0.00545204       0.00109181       0.00953689 </v>
   <v>       0.00149657       0.00101301       0.01142687 </v>
   <v>      -0.00017393      -0.00085943       0.00528988 </v>
   <v>       0.00213739      -0.00172510      -0.00393612 </v>
   <v>       0.01099861       0.00056843       0.00014352 </v>
   <v>       0.00697393       0.00095576       0.00626518 </v>
   <v>      -0.00121439       0.00045677       0.01048725 </v>
   <v>      -0.00658470      -0.00533686       0.00073291 </v>
   <v>      -0.01462279      -0.01241074      -0.02310983 </v>
   <v>       0.01405948      -0.01059726      -0.01723904 </v>
   <v>       0.00867063       0.00317541      -0.00019002 </v>
   <v>       0.00171429       0.00081805       0.00343710 </v>
   <v>      -0.00337852      -0.00082061      -0.00180453 </v>
   <v>      -0.01542184       0.00322965      -0.01508974 </v>
   <v>      -0.00510006      -0.00483954      -0.00668007 </v>
   <v>      -0.00585311       0.00718859       0.00445488 </v>
   <v>       0.00026171       0.00576139       0.00287026 </v>
   <v>      -0.00243553       0.00413186      -0.00031247 </v>
   <v>      -0.00048244       0.00605600      -0.00042725 </v>
   <v>       0.00176521       0.00786822      -0.00215403 </v>
   <v>      -0.00085064      -0.00720568       0.01367949 </v>
   <v>       0.00037324       0.00557837       0.00514276 </v>
   <v>       0.00031259       0.00629293       0.00177843 </v>
   <v>       0.00390125       0.00265636      -0.00014979 </v>
   <v>       0.00871410       0.00399811       0.00439542 </v>
   <v>       0.00557137      -0.00147935       0.01176041 </v>
   <v>      -0.00164779      -0.00129396       0.00900886 </v>
   <v>      -0.00083914       0.00148262       0.00285134 </v>
   <v>       0.00180682       0.00576720      -0.00542543 </v>
   <v>       0.00255161       0.00293957      -0.00074059 </v>
   <v>       0.00111255       0.00378867       0.00653466 </v>
   <v>       0.00312619       0.00469654       0.00999801 </v>
   <v>       0.00437800       0.00379217       0.00201096 </v>
   <v>       0.00060173      -0.00090283      -0.01664263 </v>
   <v>      -0.00017644       0.00138266      -0.01330493 </v>
   <v>       0.00157609       0.00673547      -0.00211006 </v>
   <v>       0.00428205       0.00755601       0.00386841 </v>
   <v>       0.00499145       0.00840626      -0.00259134 </v>
   <v>      -0.00230882       0.00016533      -0.00749918 </v>
   <v>       0.00177711      -0.00101462       0.00191347 </v>
   <v>       0.00487085       0.00640336       0.00377494 </v>
   <v>       0.00109938       0.00486421      -0.00011329 </v>
   <v>       0.00032582       0.00406384       0.00035037 </v>
   <v>      -0.00291864      -0.00827476      -0.00204309 </v>
   <v>       0.00215801      -0.007893  <energy>
   <i name="e_fr_energy">    <i name="e_fr_ener   <i name="e_wo_entrp">     <i name="e_wo_ent   <i name="e_0_energy">     <i name="e_0_ener  </energy>
  <time name="totalsc">  927.87  929.22</time>
 </calculation>
17</time>
 </calculation>
396.86220467 </i>
  </energy>
  <time name="totalsc">  926.86  928.97</time>
 </ca  <time name="totalsc">  926.94  928.49</time>
 </ca  <time name="totalsc">  927.53  929.11</time>
 </calculation>
  0.00284963 </v>
   <v>      -0.06414094      -0.06959594      -0.03058668 </v>
  </varray>
  <v  <energy>
   <i name="e_fr_energy">   -397.30632893 </i>
   <i name="e_wo_entrp">   -397.31473849 </i>
   <i name="e_0_energy">   -397.30913211 </i>
  </energy>
  <time name="totalsc">  927.65  929.29</time>
 </calculation>
ner  </energy>
  <time name="totalsc">  927.67  929.23</time>
 </calculation>
>  927.17  929.14</time>
 </ca  <time name="totalsc">  926.68  929.07</time>
 </ca  <time name="totalsc">  9   <time name="dav">  113.   <time name="dav   <time name="total">  13   <time name="total">  13   <time name="total">  13   <time name="total">  135.88  13   <time name="dav">  163.47  163.67</time>
   <time name="total">  18   <time   <time name="dav">  167.65  167.87</time>
   <time name="total">  193.22  193.52</time>
   <dipole>
    <v name="dipole">      0.00000000       0.00000000      -0.16566312 </v>
    <i name="Tr[quadrupol]"> -27229.42719185 </i>
    <i name="Echarged">      0.00000000 </i>
    <i name="Edipol_quadrupol">      0.00000000 </i>
    <i name="Eion">      0.00000000 </i>
   </dipole>
   <energy>
    <i name="alphaZ">    712.86509271 </i>
    <i name="ewald"> 142248.07132457 </i>
    <i name="hartreedc">-195432.81148294 </i>
    <i name="XCdc">   2265.20259315 </i>
    <i name="pawpsdc">  74629.60061161 </i>
    <i name="pawaedc"> -74047.53884552 </i>
    <i name="eentropy">      0.01421942 </i>
    <i name="bandstr"> -11770   <time name="dav">  123.44  123.63</time>
   <time name="total">  143.77  144.13</time>
   <di   <time name="total">  14   <time name="total">  146.92  14   <time name="dav">  179.48  179.72</time>
   <time name="total">  199.66  19   <time name="dav">  182.69  182.91</time>
   <time name="total">  208.30  208.58</time>
   <dipole>
    <v name="dipole">      0.00000000       0.00000000      -0.16572851 </v>
    <i name="Tr[quadrupol]"> -27229.42714535 </i>
    <i name="Echarged">      0.00000000 </i>
    <i name="Edipol_quadrupol">      0.00000000 </i>
    <i nam   <time name="dav">  118.   <time name="dav   <time name="total">  13   <time name="total">  143.20  143.58</time>
   <dipole>
    <v name="dipole">      0   <time name="dav">  165.91  166.09</time>
   <time name="total">  186.20  186.45</time>
   <dipole>
    <v name="dipole">      0.00000000       0.00000000      -0.16820127 </v>
    <i name="Tr[quadrupol]"> -27253.52649440 </i>
    <i name="Echarged">      0.00000000 </i>
    <i name="Edipol_quadrupol">      0.00000000 </i>
    <i name="Eion">      0.00000000 </i>
   </dipole>
   <energy>
    <i name="e_fr_energy">   -395.84381293 </i>
    <i name="e_wo_entrp">   -395.85047953 </i>
    <i name="e_0_energy">   -395.84603513 </i>
   </energy>
  </scstep>
  <scstep>
   <time name="dav">  157.71  157.88</time>
   <time name="total">  177.80  178.04</time>
   <dipole>
    <v name="dipole">      0.00000000       0.00000000      -0.16802626 </v>
    <i name="Tr[quadrupol]"> -27253.52632986 </i>
    <i name="Echarged">      0.00000000 </i>
    <i name="Edipol_quadrupol">      0.00000000 </i>
    <i name="Eion">      0.00000000 </i>
   </dipole>
   <energy>
    <i name="e_fr_energy">   -395.84381141 </i>
    <i name="e_w  <structure>
   <crystal>
    <varray name="basis" >
     <v>      15.62500000       0.00000000       0.00000000 </v>
     <v>      -7.81250000      13.53164693       0.00000000 </v>
     <v>       0.00000000       0.00000000      20.00000000 </v>
    </varray>
    <i name="volume">   4228.63966688 </i>
    <varray name="rec_basis" >
     <v>       0.06400000       0.03695042       0.00000000 </v>
     <v>       0.00000000       0.07390083       0.00000000 </v>
     <v>       0.00000000       0.00000000       0.05000000 </v>
    </varray>
   </crystal>
   <varray name="positions" >
    <v>       0.06774286       0.13438972       0.18646518 </v>
    <v>       0.26657310       0.13424745       0.18617394 </v>
    <v>       0.46626917       0.13344300       0.18643353 </v>
    <v>       0.66661230       0.13333584       0.18680488 </v>
    <v>       0.86719558       0.13358879       0.18687872 </v>
    <v>       0.06898707       0.33441038       0.18430605 </v>
    <v>       0.26867651       0.33751196       0.18083370 </v>
    <v>       0.46542899       0.33428565       0.18371982 </v>
    <v>       0.66626485       0.33352240       0.18660634 </v>
    <v>       0.86713712       0.33358201       0.18682076 </v>
    <v>       0.06762968       0.53316086       0.18648725 </v>
    <v>       0.26881286       0.53064592       0.18106397 </v>
    <v>       0.46049113       0.52890804       0.18052496 </v>
    <v>       0.66492055       0.53313729       0.18641553 </v>
    <v>       0.86644017       0.53314323       0.18769500 </v>
    <v>       0.06671363       0.73310175       0.18787271 </v>
    <v>       0.26639933       0.73170626       0.18622123 </v>
    <v>       0.46461860       0.73134110       0.18354790 </v>
    <v>       0.66670107       0.73277847       0.18638497 </v>
    <v>       0.86619746       0.73287664       0.18798687 </v>
    <v>       0.06666411       0.93343853       0.18788487 </v>
    <v>       0.26671805       0.93322685       0.18738135 </v>
    <v>       0.46652252       0.93281251       0.18645415 </v>
    <v>       0.66624166       0.93259189       0.18677541 </v>
    <v>       0.86649280       0.93347316       0.18776647 </v>
    <v>       0.13267786       0.06571825       0.10800222 </v>
    <v>       0.33265739       0.06598188       0.10773357 </v>
    <v>       0.53330030       0.06663231       0.10762985 </v>
    <v>       0.73347393       0.06655501       0.10796499 </v>
    <v>       0.93334623       0.06623226       0.10816319 </v>
    <v>       0.13349363       0.26547280       0.10480492 </v>
    <v>       0.33148879       0.26537613       0.10448525 </v>
    <v>       0.53367001       0.26621989       0.10676901 </v>
    <v>       0.73350922       0.26686726       0.10781954 </v>
    <v>       0.93279462       0.26637280       0.10721967 </v>
    <v>       0.13366204       0.46787075       0.10493019 </v>
    <v>       0.33203595       0.46572083       0.09995086 </v>
    <v>       0.53405734       0.46772802       0.10434827 </v>
    <v>       0.73363739       0.46727907       0.10805899 </v>
    <v>       0.93326210       0.46711127       0.10810529 </v>
    <v>       0.13262899       0.66671279       0.10799980 </v>
    <v>       0.33085879       0.66527121       0.10438061 </v>
    <v>       0.53409047       0.66576016       0.10530437 </v>
    <v>       0.73418708       0.66680992       0.10793106 </v>
    <v>       0.93329891       0.66671139       0.10897728 </v>
    <v>       0.13290480       0.86637163       0.10882117 </v>
    <v>       0.33270163       0.86626773       0.10782471 </v>
    <v>       0.53390653       0.86773201       0.10661814 </v>
    <v>       0.73407532       0.86705603       0.10791082 </v>
    <v>       0.93313750       0.86639257       0.10904265 </v>
    <v>       0.13428669       0.06832778       0.26611004 </v>
    <v>       0.33348931       0.06804423       0.26582672 </v>
    <v>       0.53291032       0.06647465       0.26557187 </v>
    <v>       0.73323887       0.06640027       0.26582156 </v>
    <v>       0.93477057       0.06828744       0.26621797 </v>
    <v>       0.14000457       0.27323824       0.26299118 </v>
    <v>       0.33338036       0.27306657       0.26265023 </v>
    <v>       0.53159847       0.26800723       0.26443960 </v>
    <v>       0.73328273       0.26690623       0.26575916 </v>
    <v>       0.93628445       0.26818984       0.26486647 </v>
    <v>       0.13990272       0.46657019       0.26304839 </v>
    <v>       0.52578634       0.46593981       0.26284394 </v>
    <v>       0.73134629       0.46638312       0.26604242 </v>
    <v>       0.93453253       0.46645275       0.26617772 </v>
    <v>       0.13418792       0.66570006       0.26614191 </v>
    <v>       0.33358292       0.66010231       0.26282279 </v>
    <v>       0.52614442       0.65934070       0.26084373 </v>
    <v>       0.73131768       0.66558612       0.26630237 </v>
    <v>       0.93313371       0.66616631       0.26703446 </v>
    <v>       0.13382556       0.86683042       0.26687214 </v>
    <v>       0.33350797       0.86512424       0.26578553 </v>
    <v>       0.53132497       0.86324563       0.26453168 </v>
    <v>       0.73179880       0.86525902       0.26626326 </v>
    <v>       0.93304667       0.86673163       0.26704525 </v>
    <v>       0.50774340       0.64181045       0.36411719 </v>
   </varray>
  </structure>
  <varray name="forces" >
   <v>      -0.00108952      -0.00127460      -0.00076839 </v>
   <v>      -0.00104598      -0.00129938      -0.00008509 </v>
   <v>      -0.00151922      -0.00069100       0.00016124 </v>
   <v>      -0.00034337      -0.00112016       0.00039229 </v>
   <v>      -0.00074298      -0.00150601      -0.00004104 </v>
   <v>      -0.00022063      -0.00109821      -0.00030321 </v>
   <v>       0.00019052      -0.00025850      -0.00091028 </v>
   <v>      -0.00120611      -0.00064908       0.00069468 </v>
   <v>      -0.00045496      -0.00110259       0.00089430 </v>
   <v>      -0.00033966      -0.00170931      -0.00005758 </v>
   <v>      -0.00074233      -0.00123348       0.00023671 </v>
   <v>      -0.00152674      -0.00044409       0.00041797 </v>
   <v>      -0.00059040       0.00007658       0.00221348 </v>
   <v>      -0.00025831      -0.00134206       0.00051639 </v>
   <v>      -0.00063330      -0.00164474       0.00040063 </v>
   <v>      -0.00035955      -0.00103821       0.00083731 </v>
   <v>      -0.00036241      -0.00145974       0.00137889 </v>
   <v>       0.00033739      -0.00109164       0.00065758 </v>
   <v>       0.00020760      -0.00066658      -0.00384112 </v>
   <v>       0.00001306      -0.00144703      -0.00030700 </v>
   <v>      -0.00084538      -0.00113142       0.00018104 </v>
   <v>      -0.00096925      -0.00123743       0.00070804 </v>
   <v>      -0.00072823      -0.00174526       0.00042733 </v>
   <v>      -0.00061334      -0.00148081      -0.00008618 </v>
   <v>      -0.00117892      -0.00149392      -0.00049325 </v>
   <v>      -0.00054148      -0.00131102      -0.00091186 </v>
   <v>      -0.00074707      -0.00157297      -0.00026328 </v>
   <v>      -0.00099975      -0.00123383       0.00109086 </v>
   <v>      -0.00107441      -0.00100327      -0.00071756 </v>
   <v>      -0.00030683      -0.00003664      -0.00189945 </v>
   <v>      -0.00150292      -0.00041768      -0.00085634 </v>
   <v>      -0.00032674      -0.00050243       0.00105519 </v>
   <v>      -0.00153706      -0.00068064       0.00075277 </v>
   <v>      -0.00142795      -0.00158241      -0.00061795 </v>
   <v>      -0.00217643      -0.00233748      -0.00243642 </v>
   <v>      -0.00070313      -0.00013066      -0.00068747 </v>
   <v>       0.00004832       0.00055574       0.00112944 </v>
   <v>      -0.00123925      -0.00067782       0.00152041 </v>
   <v>      -0.00031863      -0.00198829      -0.00042434 </v>
   <v>      -0.00005214      -0.00209566      -0.00125709 </v>
   <v>      -0.00077002      -0.00150604       0.00057882 </v>
   <v>      -0.00092609      -0.00058959       0.00005121 </v>
   <v>      -0.00143808      -0.00233492      -0.00038270 </v>
   <v>       0.00162729      -0.00378154      -0.00268571 </v>
   <v>       0.00035362      -0.00163033       0.00001507 </v>
   <v>      -0.00049954      -0.00048710      -0.00001970 </v>
   <v>      -0.00051838      -0.00170007       0.00029403 </v>
   <v>      -0.00091912      -0.00158055      -0.00030994 </v>
   <v>      -0.00047060      -0.00011855      -0.00245346 </v>
   <v>      -0.00077213      -0.00066022      -0.00049657 </v>
   <v>      -0.00132905      -0.00135734      -0.00050149 </v>
   <v>      -0.00218440      -0.00071589      -0.00094903 </v>
   <v>      -0.00119601      -0.00175936      -0.00098151 </v>
   <v>      -0.00031473      -0.00181476      -0.00026344 </v>
   <v>      -0.00117135      -0.00272901      -0.00105145 </v>
   <v>      -0.00147519      -0.00028754      -0.00076805 </v>
   <v>       0.00008947      -0.00168177      -0.00004598 </v>
   <v>      -0.00065228      -0.00119365       0.00030313 </v>
   <v>      -0.00058497      -0.00122755      -0.00041473 </v>
   <v>       0.00055187      -0.00132901      -0.00050086 </v>
   <v>      -0.00219103      -0.00108974      -0.00019763 </v>
   <v>      -0.00028671      -0.00060699       0.00196146 </v>
   <v>      -0.00026676      -0.00139810       0.00022591 </v>
   <v>      -0.00050598      -0.00229647      -0.00127497 </v>
   <v>      -0.00058547      -0.00169789       0.00010035 </v>
   <v>      -0.00040606      -0.00050426       0.00047599 </v>
   <v>       0.00398081       0.00446289       0.00186628 </v>
   <v>      -0.00018435      -0.00007804      -0.00153074 </v>
   <v>      -0.00070006      -0.00251744      -0.00064190 </v>
   <v>      -0.00065502      -0.00048967       0.00007655 </v>
   <v>      -0.00102269      -0.00147339       0.00035948 </v>
   <v>      -0.00060216      -0.00152417       0.00054377 </v>
   <v>      -0.00104768      -0.00280437      -0.00180213 </v>
   <v>      -0.00128458      -0.00114152      -0.00095765 </v>
   <v>       0.04628497       0.08474766       0.01267592 </v>
  </varray>
  <varray name="stress" >
   <v>       7.73498144       0.02133047       0.06310292 </v>
   <v>       0.02133053       7.88810983       0.11386820 </v>
   <v>       0.06310288       0.11386820      -0.36669629 </v>
  </varray>
1533711 </v>
   <v>       0.00406634       0.00825591       0.00300426 </v>
   <v>       0.00071455       0.00627680       0.00488821 </v>
   <v>      -1.27145543      -0.93826953      -0.98390852 </v>
  </varray>
  <varray name="stress" >
   <v>       8.87923330      -0.30613677      -1.18788468 </v>
   <v>      -0.30613675       8.97283194      -0.92297101 </v>
   <v>      -1.18788466      -0.92297100      -1.29454561 </v>
  </varray>
17031788 </v>
  </varray>
