 vasp.5.4.4.18Apr17-6-g9f103f2a35 (build Dec 13 2020 03:13:36) complex          
  
 executed on             LinuxIFC date 2021.01.29  19:06:58
 running on   32 total cores
 distrk:  each k-point on   32 cores,    1 groups
 distr:  one band on NCORES_PER_BAND=   8 cores,    4 groups


--------------------------------------------------------------------------------------------------------


 INCAR:
 POTCAR:    PAW_PBE Mo_sv 02Feb2006               
 POTCAR:    PAW_PBE S 06Sep2000                   

 ----------------------------------------------------------------------------- 
|                                                                             |
|  ADVICE TO THIS USER RUNNING 'VASP/VAMP'   (HEAR YOUR MASTER'S VOICE ...):  |
|                                                                             |
|      You have switched on vdW-DFT.                                          |
|      This routine was written and supplied by Jiri Klimes.                  |
|      We recommed that you carefully read and cite the following             |
|      publication                                                            |
|      J. Klimes, D.R. Bowler, A. Michelides                                  |
|        J. Phys.: Cond Matt. 22 022201 (2010)                                |
|      J. Klimes, D.R. Bowler, A. Michelides                                  |
|        Phys. Rev. B. 83, 195131 (2011)                                      |
|      and references therein.                                                |
|                                                                             |
 ----------------------------------------------------------------------------- 

 POTCAR:    PAW_PBE Mo_sv 02Feb2006               
  local pseudopotential read in
  partial core-charges read in
  partial kinetic energy density read in
  atomic valenz-charges read in
  non local Contribution for L=           0  read in
    real space projection operators read in
  non local Contribution for L=           0  read in
    real space projection operators read in
  non local Contribution for L=           1  read in
    real space projection operators read in
  non local Contribution for L=           1  read in
    real space projection operators read in
  non local Contribution for L=           2  read in
    real space projection operators read in
  non local Contribution for L=           2  read in
    real space projection operators read in
    PAW grid and wavefunctions read in
 
   number of l-projection  operators is LMAX  =           6
   number of lm-projection operators is LMMAX =          18
 
 POTCAR:    PAW_PBE S 06Sep2000                   
  local pseudopotential read in
  partial core-charges read in
  partial kinetic energy density read in
  atomic valenz-charges read in
  non local Contribution for L=           0  read in
    real space projection operators read in
  non local Contribution for L=           0  read in
    real space projection operators read in
  non local Contribution for L=           1  read in
    real space projection operators read in
  non local Contribution for L=           1  read in
    real space projection operators read in
    PAW grid and wavefunctions read in
 
   number of l-projection  operators is LMAX  =           4
   number of lm-projection operators is LMMAX =           8
 
 Optimization of the real space projectors (new method)

 maximal supplied QI-value         = 15.12
 optimisation between [QCUT,QGAM] = [ 11.34, 22.83] = [ 36.00,145.93] Ry 
 Optimized for a Real-space Cutoff    1.56 Angstroem

   l    n(q)    QCUT    max X(q) W(low)/X(q) W(high)/X(q)  e(spline) 
   0     11    11.338     3.559    0.12E-04    0.27E-04    0.22E-06
   0     11    11.338    20.730    0.39E-04    0.28E-04    0.24E-06
   1     10    11.338     3.279    0.28E-05    0.23E-05    0.28E-07
   1     10    11.338     4.693    0.50E-04    0.39E-04    0.26E-06
   2     10    11.338    67.616    0.16E-03    0.41E-03    0.73E-06
   2     10    11.338    62.420    0.16E-03    0.41E-03    0.74E-06
 Optimization of the real space projectors (new method)

 maximal supplied QI-value         = 19.84
 optimisation between [QCUT,QGAM] = [ 11.31, 22.82] = [ 35.82,145.81] Ry 
 Optimized for a Real-space Cutoff    1.20 Angstroem

   l    n(q)    QCUT    max X(q) W(low)/X(q) W(high)/X(q)  e(spline) 
   0      8    11.310   187.594    0.16E-03    0.19E-03    0.53E-07
   0      8    11.310   164.243    0.16E-03    0.19E-03    0.53E-07
   1      8    11.310    67.533    0.18E-03    0.19E-03    0.92E-07
   1      8    11.310    50.729    0.18E-03    0.19E-03    0.90E-07

 ----------------------------------------------------------------------------- 
|                                                                             |
|  ADVICE TO THIS USER RUNNING 'VASP/VAMP'   (HEAR YOUR MASTER'S VOICE ...):  |
|                                                                             |
|      You enforced a specific xc-type in the INCAR file,                     |
|      a different type was found on the POTCAR file                          |
|          I HOPE YOU KNOW, WHAT YOU ARE  DOING                               |
|                                                                             |
 ----------------------------------------------------------------------------- 

  PAW_PBE Mo_sv 02Feb2006               :
 energy of atom  1       EATOM=-1862.2866
 kinetic energy error for atom=    0.0074 (will be added to EATOM!!)
  PAW_PBE S 06Sep2000                   :
 energy of atom  2       EATOM= -276.8230
 kinetic energy error for atom=    0.0020 (will be added to EATOM!!)
 
 
 POSCAR: generated by phonopy                    
  positions in direct lattice
  No initial velocities read in
 exchange correlation table for  LEXCH =       43
   RHO(1)=    0.500       N(1)  =     2000
   RHO(2)=  100.500       N(2)  =     4000
 


--------------------------------------------------------------------------------------------------------


 ion  position               nearest neighbor table
   1  0.067  0.133  0.186-  55 2.40  51 2.40  56 2.40  30 2.40  26 2.40  31 2.40   6 3.12   7 3.12
                            21 3.12  25 3.12   2 3.12   5 3.13
   2  0.267  0.133  0.186-  51 2.40  52 2.40  57 2.40  26 2.40  27 2.40  32 2.40   7 3.12   8 3.12
                            21 3.12  22 3.12   1 3.12   3 3.13
   3  0.467  0.133  0.186-  52 2.40  53 2.40  58 2.40  27 2.40  28 2.40  33 2.40   8 3.12   9 3.12
                            22 3.12  23 3.12   4 3.12   2 3.13
   4  0.667  0.133  0.186-  53 2.40  54 2.40  59 2.40  28 2.40  29 2.40  34 2.40   9 3.12  10 3.12
                            23 3.12  24 3.12   3 3.12   5 3.13
   5  0.867  0.133  0.186-  54 2.40  55 2.40  60 2.40  29 2.40  30 2.40  35 2.40  10 3.12   6 3.12
                            24 3.12  25 3.12   1 3.13   4 3.13
   6  0.067  0.333  0.186-  60 2.40  56 2.40  61 2.40  35 2.40  31 2.40  36 2.40   1 3.12   5 3.12
                            12 3.12  11 3.12   7 3.12  10 3.13
   7  0.267  0.333  0.186-  56 2.40  57 2.40  62 2.40  31 2.40  32 2.40  37 2.40   1 3.12   2 3.12
                            12 3.12  13 3.12   6 3.12   8 3.13
   8  0.467  0.333  0.186-  57 2.40  58 2.40  63 2.40  32 2.40  33 2.40  38 2.40   3 3.12   2 3.12
                            14 3.12  13 3.12   9 3.12   7 3.13
   9  0.667  0.333  0.186-  58 2.40  59 2.40  64 2.40  33 2.40  34 2.40  39 2.40   3 3.12   4 3.12
                            14 3.12  15 3.12   8 3.12  10 3.13
  10  0.867  0.333  0.186-  59 2.40  60 2.40  65 2.40  34 2.40  35 2.40  40 2.40   5 3.12   4 3.12
                            11 3.12  15 3.12   6 3.13   9 3.13
  11  0.067  0.533  0.186-  65 2.40  61 2.40  66 2.40  40 2.40  36 2.40  41 2.40  17 3.12  10 3.12
                            16 3.12   6 3.12  12 3.12  15 3.13
  12  0.267  0.533  0.186-  61 2.40  62 2.40  67 2.40  36 2.40  37 2.40  42 2.40   6 3.12   7 3.12
                            17 3.12  18 3.12  11 3.12  13 3.13
  13  0.467  0.533  0.186-  62 2.40  63 2.40  68 2.40  37 2.40  38 2.40  43 2.40  19 3.12   8 3.12
                            18 3.12   7 3.12  14 3.12  12 3.13
  14  0.667  0.533  0.186-  63 2.40  64 2.40  69 2.40  38 2.40  39 2.40  44 2.40   8 3.12   9 3.12
                            19 3.12  20 3.12  13 3.12  15 3.13
  15  0.867  0.533  0.186-  64 2.40  65 2.40  70 2.40  39 2.40  40 2.40  45 2.40  16 3.12  20 3.12
                             9 3.12  10 3.12  11 3.13  14 3.13
  16  0.067  0.733  0.186-  70 2.40  66 2.40  71 2.40  45 2.40  41 2.40  46 2.40  21 3.12  22 3.12
                            11 3.12  15 3.12  17 3.12  20 3.13
  17  0.267  0.733  0.186-  66 2.40  67 2.40  72 2.40  41 2.40  42 2.40  47 2.40  22 3.12  23 3.12
                            11 3.12  12 3.12  16 3.12  18 3.13
  18  0.467  0.733  0.186-  67 2.40  68 2.40  73 2.40  42 2.40  43 2.40  48 2.40  23 3.12  24 3.12
                            12 3.12  13 3.12  19 3.12  17 3.13
  19  0.667  0.733  0.186-  68 2.40  69 2.40  74 2.40  43 2.40  44 2.40  49 2.40  24 3.12  25 3.12
                            13 3.12  14 3.12  18 3.12  20 3.13
  20  0.867  0.733  0.186-  69 2.40  70 2.40  75 2.40  44 2.40  45 2.40  50 2.40  25 3.12  21 3.12
                            14 3.12  15 3.12  16 3.13  19 3.13
  21  0.067  0.933  0.186-  75 2.40  71 2.40  51 2.40  50 2.40  46 2.40  26 2.40  16 3.12  20 3.12
                             2 3.12   1 3.12  22 3.12  25 3.13
  22  0.267  0.933  0.186-  71 2.40  72 2.40  52 2.40  46 2.40  47 2.40  27 2.40  16 3.12  17 3.12
                             2 3.12   3 3.12  21 3.12  23 3.13
  23  0.467  0.933  0.186-  72 2.40  73 2.40  53 2.40  47 2.40  48 2.40  28 2.40  18 3.12  17 3.12
                             4 3.12   3 3.12  24 3.12  22 3.13
  24  0.667  0.933  0.186-  73 2.40  74 2.40  54 2.40  48 2.40  49 2.40  29 2.40  18 3.12  19 3.12
                             4 3.12   5 3.12  23 3.12  25 3.13
  25  0.867  0.933  0.186-  74 2.40  75 2.40  55 2.40  49 2.40  50 2.40  30 2.40  20 3.12  19 3.12
                             1 3.12   5 3.12  21 3.13  24 3.13
  26  0.133  0.067  0.107-   2 2.40   1 2.40  21 2.40
  27  0.333  0.067  0.107-   3 2.40   2 2.40  22 2.40
  28  0.533  0.067  0.107-   4 2.40   3 2.40  23 2.40
  29  0.733  0.067  0.107-   5 2.40   4 2.40  24 2.40
  30  0.933  0.067  0.107-   1 2.40   5 2.40  25 2.40
  31  0.133  0.267  0.107-   7 2.40   6 2.40   1 2.40
  32  0.333  0.267  0.107-   8 2.40   7 2.40   2 2.40
  33  0.533  0.267  0.107-   9 2.40   8 2.40   3 2.40
  34  0.733  0.267  0.107-  10 2.40   9 2.40   4 2.40
  35  0.933  0.267  0.107-   6 2.40  10 2.40   5 2.40
  36  0.133  0.467  0.107-  12 2.40  11 2.40   6 2.40
  37  0.333  0.467  0.107-  13 2.40  12 2.40   7 2.40
  38  0.533  0.467  0.107-  14 2.40  13 2.40   8 2.40
  39  0.733  0.467  0.107-  15 2.40  14 2.40   9 2.40
  40  0.933  0.467  0.107-  11 2.40  15 2.40  10 2.40
  41  0.133  0.667  0.107-  17 2.40  16 2.40  11 2.40
  42  0.333  0.667  0.107-  18 2.40  17 2.40  12 2.40
  43  0.533  0.667  0.107-  19 2.40  18 2.40  13 2.40
  44  0.733  0.667  0.107-  20 2.40  19 2.40  14 2.40
  45  0.933  0.667  0.107-  16 2.40  20 2.40  15 2.40
  46  0.133  0.867  0.107-  22 2.40  21 2.40  16 2.40
  47  0.333  0.867  0.107-  23 2.40  22 2.40  17 2.40
  48  0.533  0.867  0.107-  24 2.40  23 2.40  18 2.40
  49  0.733  0.867  0.107-  25 2.40  24 2.40  19 2.40
  50  0.933  0.867  0.107-  21 2.40  25 2.40  20 2.40
  51  0.133  0.067  0.265-   2 2.40   1 2.40  21 2.40
  52  0.333  0.067  0.265-   3 2.40   2 2.40  22 2.40
  53  0.533  0.067  0.265-   4 2.40   3 2.40  23 2.40
  54  0.733  0.067  0.265-   5 2.40   4 2.40  24 2.40
  55  0.933  0.067  0.265-   1 2.40   5 2.40  25 2.40
  56  0.133  0.267  0.265-   7 2.40   6 2.40   1 2.40
  57  0.333  0.267  0.265-   8 2.40   7 2.40   2 2.40
  58  0.533  0.267  0.265-   9 2.40   8 2.40   3 2.40
  59  0.733  0.267  0.265-  10 2.40   9 2.40   4 2.40
  60  0.933  0.267  0.265-   6 2.40  10 2.40   5 2.40
  61  0.133  0.467  0.265-  12 2.40  11 2.40   6 2.40
  62  0.333  0.467  0.265-  13 2.40  12 2.40   7 2.40
  63  0.533  0.467  0.265-  14 2.40  13 2.40   8 2.40
  64  0.733  0.467  0.265-  15 2.40  14 2.40   9 2.40
  65  0.933  0.467  0.265-  11 2.40  15 2.40  10 2.40
  66  0.133  0.667  0.265-  17 2.40  16 2.40  11 2.40
  67  0.333  0.667  0.265-  18 2.40  17 2.40  12 2.40
  68  0.533  0.667  0.265-  19 2.40  18 2.40  13 2.40
  69  0.733  0.667  0.265-  20 2.40  19 2.40  14 2.40
  70  0.933  0.667  0.265-  16 2.40  20 2.40  15 2.40
  71  0.133  0.867  0.265-  22 2.40  21 2.40  16 2.40
  72  0.333  0.867  0.265-  23 2.40  22 2.40  17 2.40
  73  0.533  0.867  0.265-  24 2.40  23 2.40  18 2.40
  74  0.733  0.867  0.265-  25 2.40  24 2.40  19 2.40
  75  0.933  0.867  0.265-  21 2.40  25 2.40  20 2.40
 
  LATTYP: Found a hexagonal cell.
 ALAT       =    15.6249999999
 C/A-ratio  =     1.2800000000
  
  Lattice vectors:
  
 A1 = (  15.6250000000,   0.0000000000,   0.0000000000)
 A2 = (  -7.8125000000,  13.5316469340,   0.0000000000)
 A3 = (   0.0000000000,   0.0000000000,  20.0000000000)


Analysis of symmetry for initial positions (statically):
=====================================================================
 Subroutine PRICEL returns following result:
 
  LATTYP: Found a hexagonal cell.
 ALAT       =     3.1250000000
 C/A-ratio  =     6.4000000000
  
  Lattice vectors:
  
 A1 = (   3.1250000000,   0.0000000000,   0.0000000000)
 A2 = (  -1.5625000000,   2.7063293868,   0.0000000000)
 A3 = (   0.0000000000,   0.0000000000,  20.0000000000)
 
  25 primitive cells build up your supercell.
 

 Routine SETGRP: Setting up the symmetry group for a 
 hexagonal supercell.


 Subroutine GETGRP returns: Found 12 space group operations
 (whereof  6 operations were pure point group operations)
 out of a pool of 24 trial point group operations.


The static configuration has the point symmetry C_3v.
 The point group associated with its full space group is D_3h.


Analysis of symmetry for dynamics (positions and initial velocities):
=====================================================================
 Subroutine PRICEL returns following result:
 
  LATTYP: Found a hexagonal cell.
 ALAT       =     3.1250000000
 C/A-ratio  =     6.4000000000
  
  Lattice vectors:
  
 A1 = (   3.1250000000,   0.0000000000,   0.0000000000)
 A2 = (  -1.5625000000,   2.7063293868,   0.0000000000)
 A3 = (   0.0000000000,   0.0000000000,  20.0000000000)
 
  25 primitive cells build up your supercell.
 

 Routine SETGRP: Setting up the symmetry group for a 
 hexagonal supercell.


 Subroutine GETGRP returns: Found 12 space group operations
 (whereof  6 operations were pure point group operations)
 out of a pool of 24 trial point group operations.


The dynamic configuration has the point symmetry C_3v.
 The point group associated with its full space group is D_3h.


Analysis of structural, dynamic, and magnetic symmetry:
=====================================================================
 Subroutine PRICEL returns following result:
 
  LATTYP: Found a hexagonal cell.
 ALAT       =     3.1250000000
 C/A-ratio  =     6.4000000000
  
  Lattice vectors:
  
 A1 = (   3.1250000000,   0.0000000000,   0.0000000000)
 A2 = (  -1.5625000000,   2.7063293868,   0.0000000000)
 A3 = (   0.0000000000,   0.0000000000,  20.0000000000)
 
  25 primitive cells build up your supercell.
 

 Routine SETGRP: Setting up the symmetry group for a 
 hexagonal supercell.


 Subroutine GETGRP returns: Found 12 space group operations
 (whereof  6 operations were pure point group operations)
 out of a pool of 24 trial point group operations.


The magnetic configuration has the point symmetry C_3v.
 The point group associated with its full space group is D_3h.


 Subroutine INISYM returns: Found 12 space group operations
 (whereof  6 operations are pure point group operations),
 and found    25 'primitive' translations

 
 
 KPOINTS: K-Point Grid Created by Matt Darby on 30

Automatic generation of k-mesh.
Space group operators:
 irot       det(A)        alpha          n_x          n_y          n_z        tau_x        tau_y        tau_z
    1     1.000000     0.000000     1.000000     0.000000     0.000000     0.000000     0.000000     0.000000
    2     1.000000   120.000000     0.000000     0.000000    -1.000000     0.000000     0.000000     0.000000
    3     1.000000   120.000000     0.000000     0.000000     1.000000     0.000000     0.000000     0.000000
    4    -1.000000   180.000000     1.000000     0.000000     0.000000     0.000000     0.000000     0.000000
    5    -1.000000   180.000000     0.500000    -0.866025     0.000000     0.000000     0.000000     0.000000
    6    -1.000000   180.000000    -0.500000    -0.866025     0.000000     0.000000     0.000000     0.000000
    7    -1.000000    60.000000     0.000000     0.000000    -1.000000     0.000000     0.000000     0.371976
    8    -1.000000   180.000000     0.000000     0.000000     1.000000     0.000000     0.000000     0.371976
    9    -1.000000    60.000000     0.000000     0.000000     1.000000     0.000000     0.000000     0.371976
   10     1.000000   180.000000     0.866025    -0.500000     0.000000     0.000000     0.000000     0.371976
   11     1.000000   180.000000     0.000000     1.000000     0.000000     0.000000     0.000000     0.371976
   12     1.000000   180.000000     0.866025     0.500000     0.000000     0.000000     0.000000     0.371976
 
 Subroutine IBZKPT returns following result:
 ===========================================
 
 Found      3 irreducible k-points:
 
 Following reciprocal coordinates:
            Coordinates               Weight
  0.000000  0.000000  0.000000      1.000000
  0.333333 -0.000000  0.000000      6.000000
  0.333333  0.333333  0.000000      2.000000
 
 Following cartesian coordinates:
            Coordinates               Weight
  0.000000  0.000000  0.000000      1.000000
  0.021333  0.012317  0.000000      6.000000
  0.021333  0.036950  0.000000      2.000000
 


--------------------------------------------------------------------------------------------------------




 Dimension of arrays:
   k-points           NKPTS =      3   k-points in BZ     NKDIM =      3   number of bands    NBANDS=    428
   number of dos      NEDOS =    301   number of ions     NIONS =     75
   non local maximal  LDIM  =      6   non local SUM 2l+1 LMDIM =     18
   total plane-waves  NPLWV = ******
   max r-space proj   IRMAX =   8238   max aug-charges    IRDMAX=  22535
   dimension x,y,z NGX =   120 NGY =  120 NGZ =  150
   dimension x,y,z NGXF=   240 NGYF=  240 NGZF=  300
   support grid    NGXF=   240 NGYF=  240 NGZF=  300
   ions per type =              25  50
   NGX,Y,Z   is equivalent  to a cutoff of  12.77, 12.77, 12.47 a.u.
   NGXF,Y,Z  is equivalent  to a cutoff of  25.54, 25.54, 24.94 a.u.

 SYSTEM =  unknown system                          
 POSCAR =  generated by phonopy                    

 Startparameter for this run:
   NWRITE =      1    write-flag & timer
   PREC   = accura    normal or accurate (medium, high low for compatibility)
   ISTART =      0    job   : 0-new  1-cont  2-samecut
   ICHARG =      2    charge: 1-file 2-atom 10-const
   ISPIN  =      2    spin polarized calculation?
   LNONCOLLINEAR =      F non collinear calculations
   LSORBIT =      F    spin-orbit coupling
   INIWAV =      1    electr: 0-lowe 1-rand  2-diag
   LASPH  =      F    aspherical Exc in radial PAW
   METAGGA=      F    non-selfconsistent MetaGGA calc.

 Electronic Relaxation 1
   ENCUT  =  500.0 eV  36.75 Ry    6.06 a.u.  28.49 28.49 36.46*2*pi/ulx,y,z
   ENINI  =  500.0     initial cutoff
   ENAUG  =  446.0 eV  augmentation charge cutoff
   NELM   =    100;   NELMIN=  2; NELMDL=-10     # of ELM steps 
   EDIFF  = 0.1E-06   stopping-criterion for ELM
   LREAL  =      T    real-space projection
   NLSPLINE    = F    spline interpolate recip. space projectors
   LCOMPAT=      F    compatible to vasp.4.4
   GGA_COMPAT  = T    GGA compatible to vasp.4.4-vasp.4.6
   LMAXPAW     = -100 max onsite density
   LMAXMIX     =    2 max onsite mixed and CHGCAR
   VOSKOWN=      1    Vosko Wilk Nusair interpolation
   ROPT   =   -0.00020  -0.00020
 Ionic relaxation
   EDIFFG = -.1E-01   stopping-criterion for IOM
   NSW    =    200    number of steps for IOM
   NBLOCK =      1;   KBLOCK =    200    inner block; outer block 
   IBRION =      2    ionic relax: 0-MD 1-quasi-New 2-CG
   NFREE  =     10    steps in history (QN), initial steepest desc. (CG)
   ISIF   =      2    stress and relaxation
   IWAVPR =     11    prediction:  0-non 1-charg 2-wave 3-comb
   ISYM   =      2    0-nonsym 1-usesym 2-fastsym
   LCORR  =      T    Harris-Foulkes like correction to forces

   POTIM  = 0.1250    time-step for ionic-motion
   TEIN   =    0.0    initial temperature
   TEBEG  =    0.0;   TEEND  =   0.0 temperature during run
   SMASS  =  -3.00    Nose mass-parameter (am)
   estimated Nose-frequenzy (Omega)   =  0.10E-29 period in steps =****** mass=  -0.558E-26a.u.
   SCALEE = 1.0000    scale energy and forces
   NPACO  =    256;   APACO  = 16.0  distance and # of slots for P.C.
   PSTRESS=    0.0 pullay stress

  Mass of Ions in am
   POMASS =  95.94 32.07
  Ionic Valenz
   ZVAL   =  14.00  6.00
  Atomic Wigner-Seitz radii
   RWIGS  =  -1.00 -1.00
  virtual crystal weights 
   VCA    =   1.00  1.00
   NELECT =     650.0000    total number of electrons
   NUPDOWN=      -1.0000    fix difference up-down

 DOS related values:
   EMIN   =  10.00;   EMAX   =-10.00  energy-range for DOS
   EFERMI =   0.00
   ISMEAR =     0;   SIGMA  =   0.05  broadening in eV -4-tet -1-fermi 0-gaus

 Electronic relaxation 2 (details)
   IALGO  =     38    algorithm
   LDIAG  =      T    sub-space diagonalisation (order eigenvalues)
   LSUBROT=      F    optimize rotation matrix (better conditioning)
   TURBO    =      0    0=normal 1=particle mesh
   IRESTART =      0    0=no restart 2=restart with 2 vectors
   NREBOOT  =      0    no. of reboots
   NMIN     =      0    reboot dimension
   EREF     =   0.00    reference energy to select bands
   IMIX   =      4    mixing-type and parameters
     AMIX     =   0.40;   BMIX     =  1.00
     AMIX_MAG =   1.60;   BMIX_MAG =  1.00
     AMIN     =   0.10
     WC   =   100.;   INIMIX=   1;  MIXPRE=   1;  MAXMIX= -45

 Intra band minimization:
   WEIMIN = 0.0010     energy-eigenvalue tresh-hold
   EBREAK =  0.58E-10  absolut break condition
   DEPER  =   0.30     relativ break condition  

   TIME   =   0.40     timestep for ELM

  volume/ion in A,a.u.               =      56.38       380.48
  Fermi-wavevector in a.u.,A,eV,Ry     =   0.876959  1.657211 10.463646  0.769056
  Thomas-Fermi vector in A             =   1.996841
 
 Write flags
   LWAVE        =      F    write WAVECAR
   LDOWNSAMPLE  =      F    k-point downsampling of WAVECAR
   LCHARG       =      F    write CHGCAR
   LVTOT        =      F    write LOCPOT, total local potential
   LVHAR        =      F    write LOCPOT, Hartree potential only
   LELF         =      F    write electronic localiz. function (ELF)
   LORBIT       =      0    0 simple, 1 ext, 2 COOP (PROOUT), +10 PAW based schemes


 Dipole corrections
   LMONO  =      F    monopole corrections only (constant potential shift)
   LDIPOL =      T    correct potential (dipole corrections)
   IDIPOL =      3    1-x, 2-y, 3-z, 4-all directions 
   EPSILON=  1.0000000 bulk dielectric constant

 Exchange correlation treatment:
   GGA     =    MK    GGA type
   LEXCH   =    43    internal setting for exchange type
   VOSKOWN=      1    Vosko Wilk Nusair interpolation
   LHFCALC =     F    Hartree Fock is set to
   LHFONE  =     F    Hartree Fock one center treatment
   AEXX    =    0.0000 exact exchange contribution

 vdW DFT:
   LUSE_VDW   =     T    switch on vdW DFT
   Zab_VDW    =-.8491    correlation parameter
   PARAM1     =0.1234
   PARAM2     =1.0000
   PARAM3     =0.0000
   -- rVV10 --
   BPARAM     = 6.3000
   CPARAM     = 0.0093

 Linear response parameters
   LEPSILON=     F    determine dielectric tensor
   LRPA    =     F    only Hartree local field effects (RPA)
   LNABLA  =     F    use nabla operator in PAW spheres
   LVEL    =     F    velocity operator in full k-point grid
   LINTERFAST=   F  fast interpolation
   KINTER  =     0    interpolate to denser k-point grid
   CSHIFT  =0.1000    complex shift for real part using Kramers Kronig
   OMEGAMAX=  -1.0    maximum frequency
   DEG_THRESHOLD= 0.2000000E-02 threshold for treating states as degnerate
   RTIME   =   -0.100 relaxation time in fs
  (WPLASMAI=    0.000 imaginary part of plasma frequency in eV, 0.658/RTIME)
   DFIELD  = 0.0000000 0.0000000 0.0000000 field for delta impulse in time
 
 Orbital magnetization related:
   ORBITALMAG=     F  switch on orbital magnetization
   LCHIMAG   =     F  perturbation theory with respect to B field
   DQ        =  0.001000  dq finite difference perturbation B field
   LLRAUG    =     F  two centre corrections for induced B field



--------------------------------------------------------------------------------------------------------


 conjugate gradient relaxation of ions
 charge density and potential will be updated during run
 spin polarized calculation
 Variant of blocked Davidson
 Davidson routine will perform the subspace rotation
 perform sub-space diagonalisation
    after iterative eigenvector-optimisation
 modified Broyden-mixing scheme, WC =      100.0
 initial mixing is a Kerker type mixing with AMIX =  0.4000 and BMIX =      1.0000
 Hartree-type preconditioning will be used
 using additional bands          103
 real space projection scheme for non local part
 use partial core corrections
 calculate Harris-corrections to forces 
   (improved forces if not selfconsistent)
 use gradient corrections 
 use of overlap-Matrix (Vanderbilt PP)
 Gauss-broadening in eV      SIGMA  =   0.05


--------------------------------------------------------------------------------------------------------


  energy-cutoff  :      500.00
  volume of cell :     4228.64
      direct lattice vectors                 reciprocal lattice vectors
    15.625000000  0.000000000  0.000000000     0.064000000  0.036950417  0.000000000
    -7.812500000 13.531646934  0.000000000     0.000000000  0.073900834  0.000000000
     0.000000000  0.000000000 20.000000000     0.000000000  0.000000000  0.050000000

  length of vectors
    15.625000000 15.625000000 20.000000000     0.073900834  0.073900834  0.050000000


 
 k-points in units of 2pi/SCALE and weight: K-Point Grid Created by Matt Darby on 30
   0.00000000  0.00000000  0.00000000       0.111
   0.02133333  0.01231681  0.00000000       0.667
   0.02133333  0.03695042  0.00000000       0.222
 
 k-points in reciprocal lattice and weights: K-Point Grid Created by Matt Darby on 30
   0.00000000  0.00000000  0.00000000       0.111
   0.33333333 -0.00000000  0.00000000       0.667
   0.33333333  0.33333333  0.00000000       0.222
 
 position of ions in fractional coordinates (direct lattice) 
   0.06666666  0.13333332  0.18598797
   0.26666666  0.13333332  0.18598797
   0.46666666  0.13333332  0.18598797
   0.66666666  0.13333332  0.18598797
   0.86666666  0.13333332  0.18598797
   0.06666666  0.33333332  0.18598797
   0.26666666  0.33333332  0.18598797
   0.46666666  0.33333332  0.18598797
   0.66666666  0.33333332  0.18598797
   0.86666666  0.33333332  0.18598797
   0.06666666  0.53333332  0.18598797
   0.26666666  0.53333332  0.18598797
   0.46666666  0.53333332  0.18598797
   0.66666666  0.53333332  0.18598797
   0.86666666  0.53333332  0.18598797
   0.06666666  0.73333332  0.18598797
   0.26666666  0.73333332  0.18598797
   0.46666666  0.73333332  0.18598797
   0.66666666  0.73333332  0.18598797
   0.86666666  0.73333332  0.18598797
   0.06666666  0.93333332  0.18598797
   0.26666666  0.93333332  0.18598797
   0.46666666  0.93333332  0.18598797
   0.66666666  0.93333332  0.18598797
   0.86666666  0.93333332  0.18598797
   0.13333334  0.06666666  0.10688797
   0.33333334  0.06666666  0.10688797
   0.53333334  0.06666666  0.10688797
   0.73333334  0.06666666  0.10688797
   0.93333334  0.06666666  0.10688797
   0.13333334  0.26666666  0.10688797
   0.33333334  0.26666666  0.10688797
   0.53333334  0.26666666  0.10688797
   0.73333334  0.26666666  0.10688797
   0.93333334  0.26666666  0.10688797
   0.13333334  0.46666666  0.10688797
   0.33333334  0.46666666  0.10688797
   0.53333334  0.46666666  0.10688797
   0.73333334  0.46666666  0.10688797
   0.93333334  0.46666666  0.10688797
   0.13333334  0.66666666  0.10688797
   0.33333334  0.66666666  0.10688797
   0.53333334  0.66666666  0.10688797
   0.73333334  0.66666666  0.10688797
   0.93333334  0.66666666  0.10688797
   0.13333334  0.86666666  0.10688797
   0.33333334  0.86666666  0.10688797
   0.53333334  0.86666666  0.10688797
   0.73333334  0.86666666  0.10688797
   0.93333334  0.86666666  0.10688797
   0.13333334  0.06666666  0.26508597
   0.33333334  0.06666666  0.26508597
   0.53333334  0.06666666  0.26508597
   0.73333334  0.06666666  0.26508597
   0.93333334  0.06666666  0.26508597
   0.13333334  0.26666666  0.26508597
   0.33333334  0.26666666  0.26508597
   0.53333334  0.26666666  0.26508597
   0.73333334  0.26666666  0.26508597
   0.93333334  0.26666666  0.26508597
   0.13333334  0.46666666  0.26508597
   0.33333334  0.46666666  0.26508597
   0.53333334  0.46666666  0.26508597
   0.73333334  0.46666666  0.26508597
   0.93333334  0.46666666  0.26508597
   0.13333334  0.66666666  0.26508597
   0.33333334  0.66666666  0.26508597
   0.53333334  0.66666666  0.26508597
   0.73333334  0.66666666  0.26508597
   0.93333334  0.66666666  0.26508597
   0.13333334  0.86666666  0.26508597
   0.33333334  0.86666666  0.26508597
   0.53333334  0.86666666  0.26508597
   0.73333334  0.86666666  0.26508597
   0.93333334  0.86666666  0.26508597
 
 position of ions in cartesian coordinates  (Angst):
  -0.00000002  1.80421941  3.71975946
   3.12499998  1.80421941  3.71975946
   6.24999998  1.80421941  3.71975946
   9.37499998  1.80421941  3.71975946
  12.49999998  1.80421941  3.71975946
  -1.56250002  4.51054879  3.71975946
   1.56249998  4.51054879  3.71975946
   4.68749998  4.51054879  3.71975946
   7.81249998  4.51054879  3.71975946
  10.93749998  4.51054879  3.71975946
  -3.12500002  7.21687818  3.71975946
  -0.00000002  7.21687818  3.71975946
   3.12499998  7.21687818  3.71975946
   6.24999998  7.21687818  3.71975946
   9.37499998  7.21687818  3.71975946
  -4.68750002  9.92320757  3.71975946
  -1.56250002  9.92320757  3.71975946
   1.56249998  9.92320757  3.71975946
   4.68749998  9.92320757  3.71975946
   7.81249998  9.92320757  3.71975946
  -6.25000002 12.62953696  3.71975946
  -3.12500002 12.62953696  3.71975946
  -0.00000002 12.62953696  3.71975946
   3.12499998 12.62953696  3.71975946
   6.24999998 12.62953696  3.71975946
   1.56250012  0.90210970  2.13775938
   4.68750012  0.90210970  2.13775938
   7.81250012  0.90210970  2.13775938
  10.93750012  0.90210970  2.13775938
  14.06250012  0.90210970  2.13775938
   0.00000012  3.60843909  2.13775938
   3.12500012  3.60843909  2.13775938
   6.25000012  3.60843909  2.13775938
   9.37500012  3.60843909  2.13775938
  12.50000012  3.60843909  2.13775938
  -1.56249988  6.31476848  2.13775938
   1.56250012  6.31476848  2.13775938
   4.68750012  6.31476848  2.13775938
   7.81250012  6.31476848  2.13775938
  10.93750012  6.31476848  2.13775938
  -3.12499988  9.02109786  2.13775938
   0.00000012  9.02109786  2.13775938
   3.12500012  9.02109786  2.13775938
   6.25000012  9.02109786  2.13775938
   9.37500012  9.02109786  2.13775938
  -4.68749988 11.72742725  2.13775938
  -1.56249988 11.72742725  2.13775938
   1.56250012 11.72742725  2.13775938
   4.68750012 11.72742725  2.13775938
   7.81250012 11.72742725  2.13775938
   1.56250012  0.90210970  5.30171950
   4.68750012  0.90210970  5.30171950
   7.81250012  0.90210970  5.30171950
  10.93750012  0.90210970  5.30171950
  14.06250012  0.90210970  5.30171950
   0.00000012  3.60843909  5.30171950
   3.12500012  3.60843909  5.30171950
   6.25000012  3.60843909  5.30171950
   9.37500012  3.60843909  5.30171950
  12.50000012  3.60843909  5.30171950
  -1.56249988  6.31476848  5.30171950
   1.56250012  6.31476848  5.30171950
   4.68750012  6.31476848  5.30171950
   7.81250012  6.31476848  5.30171950
  10.93750012  6.31476848  5.30171950
  -3.12499988  9.02109786  5.30171950
   0.00000012  9.02109786  5.30171950
   3.12500012  9.02109786  5.30171950
   6.25000012  9.02109786  5.30171950
   9.37500012  9.02109786  5.30171950
  -4.68749988 11.72742725  5.30171950
  -1.56249988 11.72742725  5.30171950
   1.56250012 11.72742725  5.30171950
   4.68750012 11.72742725  5.30171950
   7.81250012 11.72742725  5.30171950
 


--------------------------------------------------------------------------------------------------------


 k-point  1 :   0.0000 0.0000 0.0000  plane waves:  107449
 k-point  2 :   0.3333-0.0000 0.0000  plane waves:  107318
 k-point  3 :   0.3333 0.3333 0.0000  plane waves:  107340

 maximum and minimum number of plane-waves per node :     13461    13366

 maximum number of plane-waves:    107449
 maximum index in each direction: 
   IXMAX=   28   IYMAX=   28   IZMAX=   36
   IXMIN=  -28   IYMIN=  -28   IZMIN=  -36


 real space projection operators:
  total allocation   :      39032.42 KBytes
  max/ min on nodes  :       5015.23       4812.50


 parallel 3D FFT for wavefunctions:
    minimum data exchange during FFTs selected (reduces bandwidth)
 parallel 3D FFT for charge:
    minimum data exchange during FFTs selected (reduces bandwidth)


 total amount of memory used by VASP MPI-rank0   281277. kBytes
=======================================================================

   base      :      30000. kBytes
   nonlr-proj:      16614. kBytes
   fftplans  :      27081. kBytes
   grid      :      67983. kBytes
   one-center:        311. kBytes
   wavefun   :     139288. kBytes
 
     INWAV:  cpu time    0.0001: real time    0.0186
 Broyden mixing: mesh for mixing (old mesh)
   NGX = 57   NGY = 57   NGZ = 73
  (NGX  =240   NGY  =240   NGZ  =300)
  gives a total of 237177 points

 initial charge density was supplied:
 charge density of overlapping atoms calculated
 number of electron     650.0000000 magnetization      75.0000000
 keeping initial charge density in first step


--------------------------------------------------------------------------------------------------------


 Maximum index for non-local projection operator         1011
 Maximum index for augmentation-charges          845 (set IRDMAX)


--------------------------------------------------------------------------------------------------------


 First call to EWALD:  gamma=   0.110
 Maximum number of real-space cells 3x 3x 2
 Maximum number of reciprocal cells 3x 3x 3

    FEWALD:  cpu time    0.0044: real time    0.0184


--------------------------------------- Iteration      1(   1)  ---------------------------------------


vdW kernel read from vdw_kernel.bindat
  0.0000  0.2424  0.5071  0.7962  1.1119  1.4567  1.8333  2.2446  2.6937  3.1842
  3.7199  4.3049  4.9438  5.6415  6.4036  7.2358  8.1446  9.1372 10.2212 11.4050
 12.6979 14.1099 15.6519 17.3360 19.1751 21.1837 23.3773 25.7729 28.3892 31.2465
 34.3669 37.7748 41.4965 45.5611 50.0000
 
    POTLOK:  cpu time   13.9572: real time   14.4288
    SETDIJ:  cpu time    0.0497: real time    0.4072
     EDDAV:  cpu time  121.1228: real time  121.9736
       DOS:  cpu time    0.0052: real time    0.0396
    --------------------------------------------
      LOOP:  cpu time  135.1349: real time  136.8493

 eigenvalue-minimisations  :  6224
 total energy-change (2. order) : 0.5500071E+04  (-0.3180001E+05)
 number of electron     650.0000000 magnetization      75.0000000
 augmentation part      650.0000000 magnetization      75.0000000

 DIPCOR: dipole corrections for dipol
 direction  3 min pos   199,
 dipolmoment           0.000000      0.000000     -0.000096 electrons x Angstroem
 Tr[quadrupol]    -26700.149837

 energy correction for charged system         0.000000 eV
 dipol+quadrupol energy correction           -0.000000 eV
 added-field ion interaction          0.001409 eV  (added to PSCEN)


 Free energy of the ion-electron system (eV)
  ---------------------------------------------------
  alpha Z        PSCENC =       699.20103876
  Ewald energy   TEWEN  =    143821.17683318
  -Hartree energ DENC   =   -196510.40933070
  -exchange      EXHF   =         0.00000000
  -V(xc)+E(xc)   XCENC  =      2295.56139047
  PAW double counting   =     48353.43607707   -47698.82770368
  entropy T*S    EENTRO =        -0.05592005
  eigenvalues    EBANDS =     -6005.67252669
  atomic energy  EATOM  =     60545.66099580
  Solvation  Ediel_sol  =         0.00000000
  ---------------------------------------------------
  free energy    TOTEN  =      5500.07085415 eV

  energy without entropy =     5500.12677420  energy(sigma->0) =     5500.09881418


--------------------------------------------------------------------------------------------------------




--------------------------------------- Iteration      1(   2)  ---------------------------------------


     EDDAV:  cpu time  132.5974: real time  132.9212
       DOS:  cpu time    0.0013: real time    0.0013
    --------------------------------------------
      LOOP:  cpu time  132.5987: real time  132.9225

 eigenvalue-minimisations  :  6904
 total energy-change (2. order) :-0.5350796E+04  (-0.5181987E+04)
 number of electron     650.0000000 magnetization      75.0000000
 augmentation part      650.0000000 magnetization      75.0000000

 DIPCOR: dipole corrections for dipol
 direction  3 min pos   199,
 dipolmoment           0.000000      0.000000     -0.000096 electrons x Angstroem
 Tr[quadrupol]    -26700.149837

 energy correction for charged system         0.000000 eV
 dipol+quadrupol energy correction           -0.000000 eV
 added-field ion interaction          0.001409 eV  (added to PSCEN)


 Free energy of the ion-electron system (eV)
  ---------------------------------------------------
  alpha Z        PSCENC =       699.20103876
  Ewald energy   TEWEN  =    143821.17683318
  -Hartree energ DENC   =   -196510.40933070
  -exchange      EXHF   =         0.00000000
  -V(xc)+E(xc)   XCENC  =      2295.56139047
  PAW double counting   =     48353.43607707   -47698.82770368
  entropy T*S    EENTRO =        -0.00000000
  eigenvalues    EBANDS =    -11356.52461316
  atomic energy  EATOM  =     60545.66099580
  Solvation  Ediel_sol  =         0.00000000
  ---------------------------------------------------
  free energy    TOTEN  =       149.27468773 eV

  energy without entropy =      149.27468773  energy(sigma->0) =      149.27468773


--------------------------------------------------------------------------------------------------------




--------------------------------------- Iteration      1(   3)  ---------------------------------------


     EDDAV:  cpu time  120.7009: real time  120.9740
       DOS:  cpu time    0.0010: real time    0.0010
    --------------------------------------------
      LOOP:  cpu time  120.7018: real time  120.9750

 eigenvalue-minimisations  :  6112
 total energy-change (2. order) :-0.5515233E+03  (-0.5434535E+03)
 number of electron     650.0000000 magnetization      75.0000000
 augmentation part      650.0000000 magnetization      75.0000000

 DIPCOR: dipole corrections for dipol
 direction  3 min pos   199,
 dipolmoment           0.000000      0.000000     -0.000096 electrons x Angstroem
 Tr[quadrupol]    -26700.149837

 energy correction for charged system         0.000000 eV
 dipol+quadrupol energy correction           -0.000000 eV
 added-field ion interaction          0.001409 eV  (added to PSCEN)


 Free energy of the ion-electron system (eV)
  ---------------------------------------------------
  alpha Z        PSCENC =       699.20103876
  Ewald energy   TEWEN  =    143821.17683318
  -Hartree energ DENC   =   -196510.40933070
  -exchange      EXHF   =         0.00000000
  -V(xc)+E(xc)   XCENC  =      2295.56139047
  PAW double counting   =     48353.43607707   -47698.82770368
  entropy T*S    EENTRO =        -0.00000000
  eigenvalues    EBANDS =    -11908.04789513
  atomic energy  EATOM  =     60545.66099580
  Solvation  Ediel_sol  =         0.00000000
  ---------------------------------------------------
  free energy    TOTEN  =      -402.24859423 eV

  energy without entropy =     -402.24859423  energy(sigma->0) =     -402.24859423


--------------------------------------------------------------------------------------------------------




--------------------------------------- Iteration      1(   4)  ---------------------------------------


     EDDAV:  cpu time  122.8551: real time  123.1302
       DOS:  cpu time    0.0011: real time    0.0011
    --------------------------------------------
      LOOP:  cpu time  122.8562: real time  123.1313

 eigenvalue-minimisations  :  6256
 total energy-change (2. order) :-0.1800970E+02  (-0.1777591E+02)
 number of electron     650.0000000 magnetization      75.0000000
 augmentation part      650.0000000 magnetization      75.0000000

 DIPCOR: dipole corrections for dipol
 direction  3 min pos   199,
 dipolmoment           0.000000      0.000000     -0.000096 electrons x Angstroem
 Tr[quadrupol]    -26700.149837

 energy correction for charged system         0.000000 eV
 dipol+quadrupol energy correction           -0.000000 eV
 added-field ion interaction          0.001409 eV  (added to PSCEN)


 Free energy of the ion-electron system (eV)
  ---------------------------------------------------
  alpha Z        PSCENC =       699.20103876
  Ewald energy   TEWEN  =    143821.17683318
  -Hartree energ DENC   =   -196510.40933070
  -exchange      EXHF   =         0.00000000
  -V(xc)+E(xc)   XCENC  =      2295.56139047
  PAW double counting   =     48353.43607707   -47698.82770368
  entropy T*S    EENTRO =        -0.00000000
  eigenvalues    EBANDS =    -11926.05759276
  atomic energy  EATOM  =     60545.66099580
  Solvation  Ediel_sol  =         0.00000000
  ---------------------------------------------------
  free energy    TOTEN  =      -420.25829187 eV

  energy without entropy =     -420.25829187  energy(sigma->0) =     -420.25829187


--------------------------------------------------------------------------------------------------------




--------------------------------------- Iteration      1(   5)  ---------------------------------------


     EDDAV:  cpu time  130.3963: real time  130.6975
       DOS:  cpu time    0.0009: real time    0.0027
    --------------------------------------------
      LOOP:  cpu time  130.3972: real time  130.7002

 eigenvalue-minimisations  :  6752
 total energy-change (2. order) :-0.5688242E+00  (-0.5646955E+00)
 number of electron     650.0000000 magnetization      75.0000000
 augmentation part      650.0000000 magnetization      75.0000000

 DIPCOR: dipole corrections for dipol
 direction  3 min pos   199,
 dipolmoment           0.000000      0.000000     -0.000096 electrons x Angstroem
 Tr[quadrupol]    -26700.149837

 energy correction for charged system         0.000000 eV
 dipol+quadrupol energy correction           -0.000000 eV
 added-field ion interaction          0.001409 eV  (added to PSCEN)


 Free energy of the ion-electron system (eV)
  ---------------------------------------------------
  alpha Z        PSCENC =       699.20103876
  Ewald energy   TEWEN  =    143821.17683318
  -Hartree energ DENC   =   -196510.40933070
  -exchange      EXHF   =         0.00000000
  -V(xc)+E(xc)   XCENC  =      2295.56139047
  PAW double counting   =     48353.43607707   -47698.82770368
  entropy T*S    EENTRO =        -0.00000000
  eigenvalues    EBANDS =    -11926.62641699
  atomic energy  EATOM  =     60545.66099580
  Solvation  Ediel_sol  =         0.00000000
  ---------------------------------------------------
  free energy    TOTEN  =      -420.82711609 eV

  energy without entropy =     -420.82711609  energy(sigma->0) =     -420.82711609


--------------------------------------------------------------------------------------------------------




--------------------------------------- Iteration      1(   6)  ---------------------------------------


     EDDAV:  cpu time  126.7674: real time  127.0589
       DOS:  cpu time    0.0010: real time    0.0010
    --------------------------------------------
      LOOP:  cpu time  126.7684: real time  127.0599

 eigenvalue-minimisations  :  6512
 total energy-change (2. order) :-0.2147810E-01  (-0.2137382E-01)
 number of electron     650.0000000 magnetization      75.0000000
 augmentation part      650.0000000 magnetization      75.0000000

 DIPCOR: dipole corrections for dipol
 direction  3 min pos   199,
 dipolmoment           0.000000      0.000000     -0.000096 electrons x Angstroem
 Tr[quadrupol]    -26700.149837

 energy correction for charged system         0.000000 eV
 dipol+quadrupol energy correction           -0.000000 eV
 added-field ion interaction          0.001409 eV  (added to PSCEN)


 Free energy of the ion-electron system (eV)
  ---------------------------------------------------
  alpha Z        PSCENC =       699.20103876
  Ewald energy   TEWEN  =    143821.17683318
  -Hartree energ DENC   =   -196510.40933070
  -exchange      EXHF   =         0.00000000
  -V(xc)+E(xc)   XCENC  =      2295.56139047
  PAW double counting   =     48353.43607707   -47698.82770368
  entropy T*S    EENTRO =        -0.00000000
  eigenvalues    EBANDS =    -11926.64789509
  atomic energy  EATOM  =     60545.66099580
  Solvation  Ediel_sol  =         0.00000000
  ---------------------------------------------------
  free energy    TOTEN  =      -420.84859419 eV

  energy without entropy =     -420.84859419  energy(sigma->0) =     -420.84859419


--------------------------------------------------------------------------------------------------------




--------------------------------------- Iteration      1(   7)  ---------------------------------------


     EDDAV:  cpu time  127.3310: real time  127.6126
       DOS:  cpu time    0.0011: real time    0.0011
    --------------------------------------------
      LOOP:  cpu time  127.3321: real time  127.6136

 eigenvalue-minimisations  :  6552
 total energy-change (2. order) :-0.9835478E-03  (-0.9809326E-03)
 number of electron     650.0000000 magnetization      75.0000000
 augmentation part      650.0000000 magnetization      75.0000000

 DIPCOR: dipole corrections for dipol
 direction  3 min pos   199,
 dipolmoment           0.000000      0.000000     -0.000096 electrons x Angstroem
 Tr[quadrupol]    -26700.149837

 energy correction for charged system         0.000000 eV
 dipol+quadrupol energy correction           -0.000000 eV
 added-field ion interaction          0.001409 eV  (added to PSCEN)


 Free energy of the ion-electron system (eV)
  ---------------------------------------------------
  alpha Z        PSCENC =       699.20103876
  Ewald energy   TEWEN  =    143821.17683318
  -Hartree energ DENC   =   -196510.40933070
  -exchange      EXHF   =         0.00000000
  -V(xc)+E(xc)   XCENC  =      2295.56139047
  PAW double counting   =     48353.43607707   -47698.82770368
  entropy T*S    EENTRO =        -0.00000000
  eigenvalues    EBANDS =    -11926.64887863
  atomic energy  EATOM  =     60545.66099580
  Solvation  Ediel_sol  =         0.00000000
  ---------------------------------------------------
  free energy    TOTEN  =      -420.84957774 eV

  energy without entropy =     -420.84957774  energy(sigma->0) =     -420.84957774


--------------------------------------------------------------------------------------------------------




--------------------------------------- Iteration      1(   8)  ---------------------------------------


     EDDAV:  cpu time  124.3887: real time  124.6654
       DOS:  cpu time    0.0009: real time    0.0009
    --------------------------------------------
      LOOP:  cpu time  124.3896: real time  124.6663

 eigenvalue-minimisations  :  6368
 total energy-change (2. order) :-0.4481542E-04  (-0.4474876E-04)
 number of electron     650.0000000 magnetization      75.0000000
 augmentation part      650.0000000 magnetization      75.0000000

 DIPCOR: dipole corrections for dipol
 direction  3 min pos   199,
 dipolmoment           0.000000      0.000000     -0.000096 electrons x Angstroem
 Tr[quadrupol]    -26700.149837

 energy correction for charged system         0.000000 eV
 dipol+quadrupol energy correction           -0.000000 eV
 added-field ion interaction          0.001409 eV  (added to PSCEN)


 Free energy of the ion-electron system (eV)
  ---------------------------------------------------
  alpha Z        PSCENC =       699.20103876
  Ewald energy   TEWEN  =    143821.17683318
  -Hartree energ DENC   =   -196510.40933070
  -exchange      EXHF   =         0.00000000
  -V(xc)+E(xc)   XCENC  =      2295.56139047
  PAW double counting   =     48353.43607707   -47698.82770368
  entropy T*S    EENTRO =        -0.00000000
  eigenvalues    EBANDS =    -11926.64892345
  atomic energy  EATOM  =     60545.66099580
  Solvation  Ediel_sol  =         0.00000000
  ---------------------------------------------------
  free energy    TOTEN  =      -420.84962255 eV

  energy without entropy =     -420.84962255  energy(sigma->0) =     -420.84962255


--------------------------------------------------------------------------------------------------------




--------------------------------------- Iteration      1(   9)  ---------------------------------------


     EDDAV:  cpu time  120.9264: real time  121.2002
       DOS:  cpu time    0.0011: real time    0.0011
    --------------------------------------------
      LOOP:  cpu time  120.9275: real time  121.2013

 eigenvalue-minimisations  :  6128
 total energy-change (2. order) :-0.2612476E-05  (-0.2606720E-05)
 number of electron     650.0000000 magnetization      75.0000000
 augmentation part      650.0000000 magnetization      75.0000000

 DIPCOR: dipole corrections for dipol
 direction  3 min pos   199,
 dipolmoment           0.000000      0.000000     -0.000096 electrons x Angstroem
 Tr[quadrupol]    -26700.149837

 energy correction for charged system         0.000000 eV
 dipol+quadrupol energy correction           -0.000000 eV
 added-field ion interaction          0.001409 eV  (added to PSCEN)


 Free energy of the ion-electron system (eV)
  ---------------------------------------------------
  alpha Z        PSCENC =       699.20103876
  Ewald energy   TEWEN  =    143821.17683318
  -Hartree energ DENC   =   -196510.40933070
  -exchange      EXHF   =         0.00000000
  -V(xc)+E(xc)   XCENC  =      2295.56139047
  PAW double counting   =     48353.43607707   -47698.82770368
  entropy T*S    EENTRO =        -0.00000000
  eigenvalues    EBANDS =    -11926.64892606
  atomic energy  EATOM  =     60545.66099580
  Solvation  Ediel_sol  =         0.00000000
  ---------------------------------------------------
  free energy    TOTEN  =      -420.84962517 eV

  energy without entropy =     -420.84962517  energy(sigma->0) =     -420.84962517


--------------------------------------------------------------------------------------------------------




--------------------------------------- Iteration      1(  10)  ---------------------------------------


     EDDAV:  cpu time  103.5533: real time  103.7972
       DOS:  cpu time    0.0009: real time    0.0021
    CHARGE:  cpu time    6.7698: real time    7.0433
    MIXING:  cpu time    0.0356: real time    0.0358
    --------------------------------------------
      LOOP:  cpu time  110.3598: real time  110.8786

 eigenvalue-minimisations  :  4984
 total energy-change (2. order) :-0.1511944E-06  (-0.1490448E-06)
 number of electron     650.0000010 magnetization      64.2203805
 augmentation part        9.5143342 magnetization      63.8589621

 DIPCOR: dipole corrections for dipol
 direction  3 min pos   199,
 dipolmoment           0.000000      0.000000     -0.000096 electrons x Angstroem
 Tr[quadrupol]    -26700.149837

 energy correction for charged system         0.000000 eV
 dipol+quadrupol energy correction           -0.000000 eV
 added-field ion interaction          0.001409 eV  (added to PSCEN)


 Broyden mixing:
  rms(total) = 0.12701E+02    rms(broyden)= 0.12701E+02
  rms(prec ) = 0.12831E+02
  weight for this iteration     100.00

 Free energy of the ion-electron system (eV)
  ---------------------------------------------------
  alpha Z        PSCENC =       699.20103876
  Ewald energy   TEWEN  =    143821.17683318
  -Hartree energ DENC   =   -196510.40933070
  -exchange      EXHF   =         0.00000000
  -V(xc)+E(xc)   XCENC  =      2295.56139047
  PAW double counting   =     48353.43607707   -47698.82770368
  entropy T*S    EENTRO =        -0.00000000
  eigenvalues    EBANDS =    -11926.64892621
  atomic energy  EATOM  =     60545.66099580
  Solvation  Ediel_sol  =         0.00000000
  ---------------------------------------------------
  free energy    TOTEN  =      -420.84962532 eV

  energy without entropy =     -420.84962532  energy(sigma->0) =     -420.84962532


--------------------------------------------------------------------------------------------------------




--------------------------------------- Iteration      1(  11)  ---------------------------------------


    POTLOK:  cpu time   13.8130: real time   13.8725
    SETDIJ:  cpu time    0.0395: real time    0.0402
     EDDAV:  cpu time  111.7510: real time  111.9906
       DOS:  cpu time    0.0010: real time    0.0403
    CHARGE:  cpu time    6.7248: real time    6.7379
    MIXING:  cpu time    0.0515: real time    0.1934
    --------------------------------------------
      LOOP:  cpu time  132.3810: real time  132.8749

 eigenvalue-minimisations  :  5568
 total energy-change (2. order) : 0.3175811E+02  (-0.1721788E+02)
 number of electron     650.0000026 magnetization      54.4034219
 augmentation part       24.2332326 magnetization      53.6658817

 DIPCOR: dipole corrections for dipol
 direction  3 min pos   211,
 dipolmoment           0.000000      0.000000      0.022399 electrons x Angstroem
 Tr[quadrupol]    -26698.802774

 energy correction for charged system         0.000000 eV
 dipol+quadrupol energy correction           -0.000011 eV
 added-field ion interaction          0.176406 eV  (added to PSCEN)


 Broyden mixing:
  rms(total) = 0.50458E+01    rms(broyden)= 0.50458E+01
  rms(prec ) = 0.51932E+01
  weight for this iteration     100.00

 eigenvalues of (default mixing * dielectric matrix)
  average eigenvalue GAMMA=   1.0178
  1.0178

 Free energy of the ion-electron system (eV)
  ---------------------------------------------------
  alpha Z        PSCENC =       699.37602454
  Ewald energy   TEWEN  =    143821.17683318
  -Hartree energ DENC   =   -195826.65057640
  -exchange      EXHF   =         0.00000000
  -V(xc)+E(xc)   XCENC  =      2281.13591250
  PAW double counting   =     57490.23995989   -56918.89706626
  entropy T*S    EENTRO =        -0.00000000
  eigenvalues    EBANDS =    -12481.13360271
  atomic energy  EATOM  =     60545.66099580
  Solvation  Ediel_sol  =         0.00000000
  ---------------------------------------------------
  free energy    TOTEN  =      -389.09151947 eV

  energy without entropy =     -389.09151947  energy(sigma->0) =     -389.09151947


--------------------------------------------------------------------------------------------------------




--------------------------------------- Iteration      1(  12)  ---------------------------------------


    POTLOK:  cpu time   13.8370: real time   14.0101
    SETDIJ:  cpu time    0.0398: real time    0.0399
     EDDAV:  cpu time  111.2032: real time  111.4501
       DOS:  cpu time    0.0010: real time    0.0010
    CHARGE:  cpu time    6.7750: real time    6.7882
    MIXING:  cpu time    0.0478: real time    0.0478
    --------------------------------------------
      LOOP:  cpu time  131.9038: real time  132.3371

 eigenvalue-minimisations  :  5536
 total energy-change (2. order) :-0.2493009E+01  (-0.5847508E+01)
 number of electron     650.0000018 magnetization      44.1183576
 augmentation part       16.0085496 magnetization      43.9661318

 DIPCOR: dipole corrections for dipol
 direction  3 min pos   220,
 dipolmoment           0.000000      0.000000     -0.280234 electrons x Angstroem
 Tr[quadrupol]    -26706.759468

 energy correction for charged system         0.000000 eV
 dipol+quadrupol energy correction           -0.001698 eV
 added-field ion interaction         -6.932263 eV  (added to PSCEN)


 Broyden mixing:
  rms(total) = 0.35035E+01    rms(broyden)= 0.35035E+01
  rms(prec ) = 0.35948E+01
  weight for this iteration     100.00

 eigenvalues of (default mixing * dielectric matrix)
  average eigenvalue GAMMA=   1.0443
  1.5083  0.5804

 Free energy of the ion-electron system (eV)
  ---------------------------------------------------
  alpha Z        PSCENC =       692.26566853
  Ewald energy   TEWEN  =    143821.17683318
  -Hartree energ DENC   =   -196484.93454666
  -exchange      EXHF   =         0.00000000
  -V(xc)+E(xc)   XCENC  =      2286.84318088
  PAW double counting   =     65198.54065518   -64609.11511981
  entropy T*S    EENTRO =        -0.00000000
  eigenvalues    EBANDS =    -11842.02219540
  atomic energy  EATOM  =     60545.66099580
  Solvation  Ediel_sol  =         0.00000000
  ---------------------------------------------------
  free energy    TOTEN  =      -391.58452831 eV

  energy without entropy =     -391.58452831  energy(sigma->0) =     -391.58452831


--------------------------------------------------------------------------------------------------------




--------------------------------------- Iteration      1(  13)  ---------------------------------------


    POTLOK:  cpu time   13.8321: real time   13.8815
    SETDIJ:  cpu time    0.0401: real time    0.0402
     EDDAV:  cpu time  110.3970: real time  110.6372
       DOS:  cpu time    0.0017: real time    0.0016
    CHARGE:  cpu time    6.7927: real time    6.8089
    MIXING:  cpu time    0.0491: real time    0.0492
    --------------------------------------------
      LOOP:  cpu time  131.1126: real time  131.4186

 eigenvalue-minimisations  :  5460
 total energy-change (2. order) : 0.8580760E+00  (-0.1028574E+01)
 number of electron     650.0000021 magnetization      32.3672790
 augmentation part       19.2152979 magnetization      32.2142926

 DIPCOR: dipole corrections for dipol
 direction  3 min pos   204,
 dipolmoment           0.000000      0.000000      0.055403 electrons x Angstroem
 Tr[quadrupol]    -26706.596834

 energy correction for charged system         0.000000 eV
 dipol+quadrupol energy correction           -0.000066 eV
 added-field ion interaction         -0.290246 eV  (added to PSCEN)


 Broyden mixing:
  rms(total) = 0.15991E+01    rms(broyden)= 0.15991E+01
  rms(prec ) = 0.16037E+01
  weight for this iteration     100.00

 eigenvalues of (default mixing * dielectric matrix)
  average eigenvalue GAMMA=   1.2588
  2.2823  0.8680  0.6262

 Free energy of the ion-electron system (eV)
  ---------------------------------------------------
  alpha Z        PSCENC =       698.90931659
  Ewald energy   TEWEN  =    143821.17683318
  -Hartree energ DENC   =   -196281.00802478
  -exchange      EXHF   =         0.00000000
  -V(xc)+E(xc)   XCENC  =      2281.41324046
  PAW double counting   =     71002.40567382   -70440.45090364
  entropy T*S    EENTRO =        -0.00000000
  eigenvalues    EBANDS =    -12018.83358373
  atomic energy  EATOM  =     60545.66099580
  Solvation  Ediel_sol  =         0.00000000
  ---------------------------------------------------
  free energy    TOTEN  =      -390.72645232 eV

  energy without entropy =     -390.72645232  energy(sigma->0) =     -390.72645232


--------------------------------------------------------------------------------------------------------




--------------------------------------- Iteration      1(  14)  ---------------------------------------


    POTLOK:  cpu time   13.8621: real time   13.9096
    SETDIJ:  cpu time    0.0389: real time    0.0390
     EDDAV:  cpu time  114.3665: real time  114.6245
       DOS:  cpu time    0.0013: real time    0.0013
    CHARGE:  cpu time    6.7600: real time    6.7737
    MIXING:  cpu time    0.0498: real time    0.0499
    --------------------------------------------
      LOOP:  cpu time  135.0787: real time  135.3980

 eigenvalue-minimisations  :  5724
 total energy-change (2. order) :-0.3797038E+01  (-0.2852231E+00)
 number of electron     650.0000022 magnetization      24.7605675
 augmentation part       20.4511506 magnetization      24.5696514

 DIPCOR: dipole corrections for dipol
 direction  3 min pos   215,
 dipolmoment           0.000000      0.000000     -0.168377 electrons x Angstroem
 Tr[quadrupol]    -26708.178896

 energy correction for charged system         0.000000 eV
 dipol+quadrupol energy correction           -0.000613 eV
 added-field ion interaction         -2.587930 eV  (added to PSCEN)


 Broyden mixing:
  rms(total) = 0.10147E+01    rms(broyden)= 0.10147E+01
  rms(prec ) = 0.10279E+01
  weight for this iteration     100.00

 eigenvalues of (default mixing * dielectric matrix)
  average eigenvalue GAMMA=   1.2372
  2.4191  1.2045  0.6625  0.6625

 Free energy of the ion-electron system (eV)
  ---------------------------------------------------
  alpha Z        PSCENC =       696.61108638
  Ewald energy   TEWEN  =    143821.17683318
  -Hartree energ DENC   =   -196301.01490452
  -exchange      EXHF   =         0.00000000
  -V(xc)+E(xc)   XCENC  =      2279.16767534
  PAW double counting   =     75293.73607537   -74742.13200618
  entropy T*S    EENTRO =        -0.00000000
  eigenvalues    EBANDS =    -11987.72924531
  atomic energy  EATOM  =     60545.66099580
  Solvation  Ediel_sol  =         0.00000000
  ---------------------------------------------------
  free energy    TOTEN  =      -394.52348995 eV

  energy without entropy =     -394.52348995  energy(sigma->0) =     -394.52348995


--------------------------------------------------------------------------------------------------------




--------------------------------------- Iteration      1(  15)  ---------------------------------------


    POTLOK:  cpu time   13.8568: real time   13.9102
    SETDIJ:  cpu time    0.0404: real time    0.0406
     EDDAV:  cpu time  113.4098: real time  113.6599
       DOS:  cpu time    0.0010: real time    0.0381
    CHARGE:  cpu time    6.6822: real time    6.6955
    MIXING:  cpu time    0.0512: real time    0.0513
    --------------------------------------------
      LOOP:  cpu time  134.0415: real time  134.3956

 eigenvalue-minimisations  :  5656
 total energy-change (2. order) :-0.2406033E+01  (-0.6212436E-01)
 number of electron     650.0000021 magnetization      12.7521952
 augmentation part       19.5761924 magnetization      12.5978947

 DIPCOR: dipole corrections for dipol
 direction  3 min pos   220,
 dipolmoment           0.000000      0.000000     -0.262195 electrons x Angstroem
 Tr[quadrupol]    -26709.165772

 energy correction for charged system         0.000000 eV
 dipol+quadrupol energy correction           -0.001486 eV
 added-field ion interaction         -6.486032 eV  (added to PSCEN)


 Broyden mixing:
  rms(total) = 0.64526E+00    rms(broyden)= 0.64526E+00
  rms(prec ) = 0.64599E+00
  weight for this iteration     100.00

 eigenvalues of (default mixing * dielectric matrix)
  average eigenvalue GAMMA=   1.3616
  2.7020  1.9068  0.8892  0.6550  0.6550

 Free energy of the ion-electron system (eV)
  ---------------------------------------------------
  alpha Z        PSCENC =       692.71211107
  Ewald energy   TEWEN  =    143821.17683318
  -Hartree energ DENC   =   -196376.93153661
  -exchange      EXHF   =         0.00000000
  -V(xc)+E(xc)   XCENC  =      2278.85207151
  PAW double counting   =     75236.95157980   -74681.11955416
  entropy T*S    EENTRO =        -0.00000000
  eigenvalues    EBANDS =    -11914.23202395
  atomic energy  EATOM  =     60545.66099580
  Solvation  Ediel_sol  =         0.00000000
  ---------------------------------------------------
  free energy    TOTEN  =      -396.92952337 eV

  energy without entropy =     -396.92952337  energy(sigma->0) =     -396.92952337


--------------------------------------------------------------------------------------------------------




--------------------------------------- Iteration      1(  16)  ---------------------------------------


    POTLOK:  cpu time   13.8502: real time   13.9098
    SETDIJ:  cpu time    0.0392: real time    0.0392
     EDDAV:  cpu time  116.1146: real time  116.3790
       DOS:  cpu time    0.0009: real time    0.0009
    CHARGE:  cpu time    6.6820: real time    6.6951
    MIXING:  cpu time    0.0506: real time    0.0508
    --------------------------------------------
      LOOP:  cpu time  136.7375: real time  137.0749

 eigenvalue-minimisations  :  5852
 total energy-change (2. order) :-0.2832131E+01  (-0.5916787E-01)
 number of electron     650.0000021 magnetization       3.9996925
 augmentation part       19.4427038 magnetization       3.9396107

 DIPCOR: dipole corrections for dipol
 direction  3 min pos   206,
 dipolmoment           0.000000      0.000000      0.018850 electrons x Angstroem
 Tr[quadrupol]    -26710.561537

 energy correction for charged system         0.000000 eV
 dipol+quadrupol energy correction           -0.000008 eV
 added-field ion interaction         -0.028120 eV  (added to PSCEN)


 Broyden mixing:
  rms(total) = 0.42766E+00    rms(broyden)= 0.42766E+00
  rms(prec ) = 0.42928E+00
  weight for this iteration     100.00

 eigenvalues of (default mixing * dielectric matrix)
  average eigenvalue GAMMA=   1.6999
  4.9221  2.1982  1.0182  0.7291  0.7291  0.6025

 Free energy of the ion-electron system (eV)
  ---------------------------------------------------
  alpha Z        PSCENC =       699.17150118
  Ewald energy   TEWEN  =    143821.17683318
  -Hartree energ DENC   =   -196425.20391935
  -exchange      EXHF   =         0.00000000
  -V(xc)+E(xc)   XCENC  =      2277.59687285
  PAW double counting   =     75133.11686742   -74575.78140826
  entropy T*S    EENTRO =        -0.00000000
  eigenvalues    EBANDS =    -11875.49939748
  atomic energy  EATOM  =     60545.66099580
  Solvation  Ediel_sol  =         0.00000000
  ---------------------------------------------------
  free energy    TOTEN  =      -399.76165467 eV

  energy without entropy =     -399.76165467  energy(sigma->0) =     -399.76165467


--------------------------------------------------------------------------------------------------------




--------------------------------------- Iteration      1(  17)  ---------------------------------------


    POTLOK:  cpu time   13.8494: real time   13.8869
    SETDIJ:  cpu time    0.0391: real time    0.0392
     EDDAV:  cpu time  117.6625: real time  117.9211
       DOS:  cpu time    0.0010: real time    0.0010
    CHARGE:  cpu time    6.6063: real time    6.6199
    MIXING:  cpu time    0.0519: real time    0.0520
    --------------------------------------------
      LOOP:  cpu time  138.2102: real time  138.5201

 eigenvalue-minimisations  :  5960
 total energy-change (2. order) :-0.9598937E+00  (-0.3134664E-01)
 number of electron     650.0000021 magnetization       1.7237325
 augmentation part       19.4476596 magnetization       1.7055618

 DIPCOR: dipole corrections for dipol
 direction  3 min pos   200,
 dipolmoment           0.000000      0.000000      0.101454 electrons x Angstroem
 Tr[quadrupol]    -26711.607507

 energy correction for charged system         0.000000 eV
 dipol+quadrupol energy correction           -0.000223 eV
 added-field ion interaction         -1.291804 eV  (added to PSCEN)


 Broyden mixing:
  rms(total) = 0.28091E+00    rms(broyden)= 0.28091E+00
  rms(prec ) = 0.28373E+00
  weight for this iteration     100.00

 eigenvalues of (default mixing * dielectric matrix)
  average eigenvalue GAMMA=   1.7545
  5.4833  2.4754  1.5306  0.8269  0.7199  0.6229  0.6229

 Free energy of the ion-electron system (eV)
  ---------------------------------------------------
  alpha Z        PSCENC =       697.90760310
  Ewald energy   TEWEN  =    143821.17683318
  -Hartree energ DENC   =   -196465.40954562
  -exchange      EXHF   =         0.00000000
  -V(xc)+E(xc)   XCENC  =      2277.11239117
  PAW double counting   =     75143.91637200   -74586.53562166
  entropy T*S    EENTRO =        -0.00000000
  eigenvalues    EBANDS =    -11834.55057632
  atomic energy  EATOM  =     60545.66099580
  Solvation  Ediel_sol  =         0.00000000
  ---------------------------------------------------
  free energy    TOTEN  =      -400.72154835 eV

  energy without entropy =     -400.72154835  energy(sigma->0) =     -400.72154835


--------------------------------------------------------------------------------------------------------




--------------------------------------- Iteration      1(  18)  ---------------------------------------


    POTLOK:  cpu time   13.8465: real time   13.8969
    SETDIJ:  cpu time    0.0395: real time    0.0395
     EDDAV:  cpu time  109.2408: real time  109.4876
       DOS:  cpu time    0.0010: real time    0.0010
    CHARGE:  cpu time    6.6831: real time    6.6980
    MIXING:  cpu time    0.0526: real time    0.0526
    --------------------------------------------
      LOOP:  cpu time  129.8635: real time  130.1757

 eigenvalue-minimisations  :  5432
 total energy-change (2. order) :-0.7387270E-01  (-0.9001784E-02)
 number of electron     650.0000022 magnetization       0.3386359
 augmentation part       19.6460905 magnetization       0.3317177

 DIPCOR: dipole corrections for dipol
 direction  3 min pos   210,
 dipolmoment           0.000000      0.000000     -0.024974 electrons x Angstroem
 Tr[quadrupol]    -26711.854633

 energy correction for charged system         0.000000 eV
 dipol+quadrupol energy correction           -0.000013 eV
 added-field ion interaction         -0.149901 eV  (added to PSCEN)


 Broyden mixing:
  rms(total) = 0.91319E-01    rms(broyden)= 0.91319E-01
  rms(prec ) = 0.91813E-01
  weight for this iteration     100.00

 eigenvalues of (default mixing * dielectric matrix)
  average eigenvalue GAMMA=   1.8514
  6.5752  2.5727  1.7194  1.1670  0.7956  0.6846  0.6846  0.6123

 Free energy of the ion-electron system (eV)
  ---------------------------------------------------
  alpha Z        PSCENC =       699.04971431
  Ewald energy   TEWEN  =    143821.17683318
  -Hartree energ DENC   =   -196465.88695978
  -exchange      EXHF   =         0.00000000
  -V(xc)+E(xc)   XCENC  =      2276.66094486
  PAW double counting   =     74423.45786551   -73866.46684185
  entropy T*S    EENTRO =        -0.00000000
  eigenvalues    EBANDS =    -11834.44797309
  atomic energy  EATOM  =     60545.66099580
  Solvation  Ediel_sol  =         0.00000000
  ---------------------------------------------------
  free energy    TOTEN  =      -400.79542105 eV

  energy without entropy =     -400.79542105  energy(sigma->0) =     -400.79542105


--------------------------------------------------------------------------------------------------------




--------------------------------------- Iteration      1(  19)  ---------------------------------------


    POTLOK:  cpu time   13.8281: real time   13.8795
    SETDIJ:  cpu time    0.0384: real time    0.0386
     EDDAV:  cpu time  109.7960: real time  110.4005
       DOS:  cpu time    0.0014: real time    0.0014
    CHARGE:  cpu time    6.6753: real time    6.6903
    MIXING:  cpu time    0.0515: real time    0.0516
    --------------------------------------------
      LOOP:  cpu time  130.3907: real time  131.0619

 eigenvalue-minimisations  :  5472
 total energy-change (2. order) :-0.1163044E-01  (-0.2485051E-02)
 number of electron     650.0000021 magnetization       0.1101415
 augmentation part       19.5991137 magnetization       0.1056004

 DIPCOR: dipole corrections for dipol
 direction  3 min pos   203,
 dipolmoment           0.000000      0.000000      0.030147 electrons x Angstroem
 Tr[quadrupol]    -26711.998311

 energy correction for charged system         0.000000 eV
 dipol+quadrupol energy correction           -0.000020 eV
 added-field ion interaction         -0.214416 eV  (added to PSCEN)


 Broyden mixing:
  rms(total) = 0.45351E-01    rms(broyden)= 0.45351E-01
  rms(prec ) = 0.47118E-01
  weight for this iteration     100.00

 eigenvalues of (default mixing * dielectric matrix)
  average eigenvalue GAMMA=   1.7945
  6.8812  2.1579  2.1579  1.2671  1.0116  0.7690  0.6449  0.6449  0.6162

 Free energy of the ion-electron system (eV)
  ---------------------------------------------------
  alpha Z        PSCENC =       698.98519318
  Ewald energy   TEWEN  =    143821.17683318
  -Hartree energ DENC   =   -196471.68907109
  -exchange      EXHF   =         0.00000000
  -V(xc)+E(xc)   XCENC  =      2276.70747428
  PAW double counting   =     74488.46200710   -73931.58217962
  entropy T*S    EENTRO =        -0.00000000
  eigenvalues    EBANDS =    -11828.52830431
  atomic energy  EATOM  =     60545.66099580
  Solvation  Ediel_sol  =         0.00000000
  ---------------------------------------------------
  free energy    TOTEN  =      -400.80705149 eV

  energy without entropy =     -400.80705149  energy(sigma->0) =     -400.80705149


--------------------------------------------------------------------------------------------------------




--------------------------------------- Iteration      1(  20)  ---------------------------------------


    POTLOK:  cpu time   13.7763: real time   13.8301
    SETDIJ:  cpu time    0.0394: real time    0.0395
     EDDAV:  cpu time  112.8578: real time  113.1127
       DOS:  cpu time    0.0012: real time    0.0018
    CHARGE:  cpu time    6.6058: real time    6.6192
    MIXING:  cpu time    0.0533: real time    0.0534
    --------------------------------------------
      LOOP:  cpu time  133.3339: real time  133.6568

 eigenvalue-minimisations  :  5672
 total energy-change (2. order) : 0.1692780E-02  (-0.4070380E-03)
 number of electron     650.0000021 magnetization       0.0650729
 augmentation part       19.6509976 magnetization       0.0643508

 DIPCOR: dipole corrections for dipol
 direction  3 min pos   200,
 dipolmoment           0.000000      0.000000      0.039411 electrons x Angstroem
 Tr[quadrupol]    -26711.985286

 energy correction for charged system         0.000000 eV
 dipol+quadrupol energy correction           -0.000034 eV
 added-field ion interaction         -0.501812 eV  (added to PSCEN)


 Broyden mixing:
  rms(total) = 0.15335E-01    rms(broyden)= 0.15335E-01
  rms(prec ) = 0.16092E-01
  weight for this iteration     100.00

 eigenvalues of (default mixing * dielectric matrix)
  average eigenvalue GAMMA=   1.7480
  6.9050  2.2603  2.2603  1.5115  1.0227  0.8842  0.7048  0.7048  0.6134  0.6134

 Free energy of the ion-electron system (eV)
  ---------------------------------------------------
  alpha Z        PSCENC =       698.69778366
  Ewald energy   TEWEN  =    143821.17683318
  -Hartree energ DENC   =   -196467.74048122
  -exchange      EXHF   =         0.00000000
  -V(xc)+E(xc)   XCENC  =      2276.65636831
  PAW double counting   =     74615.96079049   -74059.46148789
  entropy T*S    EENTRO =        -0.00000000
  eigenvalues    EBANDS =    -11831.75616103
  atomic energy  EATOM  =     60545.66099580
  Solvation  Ediel_sol  =         0.00000000
  ---------------------------------------------------
  free energy    TOTEN  =      -400.80535871 eV

  energy without entropy =     -400.80535871  energy(sigma->0) =     -400.80535871


--------------------------------------------------------------------------------------------------------




--------------------------------------- Iteration      1(  21)  ---------------------------------------


    POTLOK:  cpu time   13.8027: real time   13.8456
    SETDIJ:  cpu time    0.0402: real time    0.0403
     EDDAV:  cpu time  110.4139: real time  110.6609
       DOS:  cpu time    0.0010: real time    0.0010
    CHARGE:  cpu time    6.6924: real time    6.7056
    MIXING:  cpu time    0.0538: real time    0.0647
    --------------------------------------------
      LOOP:  cpu time  131.0041: real time  131.3181

 eigenvalue-minimisations  :  5520
 total energy-change (2. order) : 0.1681696E-02  (-0.1608004E-03)
 number of electron     650.0000021 magnetization       0.0497143
 augmentation part       19.6344678 magnetization       0.0497964

 DIPCOR: dipole corrections for dipol
 direction  3 min pos   199,
 dipolmoment           0.000000      0.000000      0.025853 electrons x Angstroem
 Tr[quadrupol]    -26712.007335

 energy correction for charged system         0.000000 eV
 dipol+quadrupol energy correction           -0.000014 eV
 added-field ion interaction         -0.377619 eV  (added to PSCEN)


 Broyden mixing:
  rms(total) = 0.65888E-02    rms(broyden)= 0.65888E-02
  rms(prec ) = 0.69281E-02
  weight for this iteration     100.00

 eigenvalues of (default mixing * dielectric matrix)
  average eigenvalue GAMMA=   1.7142
  6.9144  2.4379  2.4379  1.6387  1.1055  1.0034  0.7135  0.6723  0.6723  0.5928
  0.6678

 Free energy of the ion-electron system (eV)
  ---------------------------------------------------
  alpha Z        PSCENC =       698.82199573
  Ewald energy   TEWEN  =    143821.17683318
  -Hartree energ DENC   =   -196467.13416647
  -exchange      EXHF   =         0.00000000
  -V(xc)+E(xc)   XCENC  =      2276.64050721
  PAW double counting   =     74620.42973419   -74063.89412974
  entropy T*S    EENTRO =        -0.00000000
  eigenvalues    EBANDS =    -11832.50544692
  atomic energy  EATOM  =     60545.66099580
  Solvation  Ediel_sol  =         0.00000000
  ---------------------------------------------------
  free energy    TOTEN  =      -400.80367702 eV

  energy without entropy =     -400.80367702  energy(sigma->0) =     -400.80367702


--------------------------------------------------------------------------------------------------------




--------------------------------------- Iteration      1(  22)  ---------------------------------------


    POTLOK:  cpu time   13.8073: real time   13.8577
    SETDIJ:  cpu time    0.0398: real time    0.0399
     EDDAV:  cpu time  113.4697: real time  113.7196
       DOS:  cpu time    0.0009: real time    0.0009
    CHARGE:  cpu time    6.6385: real time    6.6516
    MIXING:  cpu time    0.0560: real time    0.0560
    --------------------------------------------
      LOOP:  cpu time  134.0123: real time  134.3257

 eigenvalue-minimisations  :  5716
 total energy-change (2. order) :-0.8699824E-03  (-0.2138153E-04)
 number of electron     650.0000021 magnetization       0.0384443
 augmentation part       19.6351866 magnetization       0.0387229

 DIPCOR: dipole corrections for dipol
 direction  3 min pos   207,
 dipolmoment           0.000000      0.000000      0.005920 electrons x Angstroem
 Tr[quadrupol]    -26712.039816

 energy correction for charged system         0.000000 eV
 dipol+quadrupol energy correction           -0.000001 eV
 added-field ion interaction          0.002260 eV  (added to PSCEN)


 Broyden mixing:
  rms(total) = 0.30575E-02    rms(broyden)= 0.30575E-02
  rms(prec ) = 0.34214E-02
  weight for this iteration     100.00

 eigenvalues of (default mixing * dielectric matrix)
  average eigenvalue GAMMA=   1.6671
  6.9186  2.4082  2.4082  1.4944  1.4944  0.9772  0.9772  0.7848  0.6461  0.6461
  0.5950  0.6546

 Free energy of the ion-electron system (eV)
[...]
  augment    -6.51530    -6.51512   -35.06837     0.00018    -0.00000     0.00000
  Kinetic 10405.46758 10404.77724 10412.63928     0.59799    -0.00004    -0.00006
  Fock        0.00000     0.00000     0.00000     0.00000     0.00000     0.00000
  -------------------------------------------------------------------------------------
  Total      28.31248    28.31248    -1.05712     0.00000     0.00000     0.00000
  in kB      10.72723    10.72723    -0.40053     0.00000     0.00000     0.00000
  external pressure =        7.02 kB  Pullay stress =        0.00 kB


 VOLUME and BASIS-vectors are now :
 -----------------------------------------------------------------------------
  energy-cutoff  :      500.00
  volume of cell :     4228.64
      direct lattice vectors                 reciprocal lattice vectors
    15.625000000  0.000000000  0.000000000     0.064000000  0.036950417  0.000000000
    -7.812500000 13.531646934  0.000000000     0.000000000  0.073900834  0.000000000
     0.000000000  0.000000000 20.000000000     0.000000000  0.000000000  0.050000000

  length of vectors
    15.625000000 15.625000000 20.000000000     0.073900834  0.073900834  0.050000000


 FORCES acting on ions
    electron-ion (+dipol)            ewald-force                    non-local-force                 convergence-correction
 -----------------------------------------------------------------------------------------------
   0.326E-04 0.324E-03 0.431E-02   0.176E-04 0.118E-04 0.165E-02   -.176E-19 0.648E-19 0.186E-18   -.746E-12 0.117E-10 -.972E-06
   0.326E-04 0.324E-03 0.431E-02   0.176E-04 0.118E-04 0.165E-02   0.375E-19 0.381E-20 -.559E-19   -.583E-12 0.118E-10 -.972E-06
   0.326E-04 0.324E-03 0.431E-02   0.176E-04 0.118E-04 0.165E-02   0.267E-19 0.771E-19 0.296E-18   -.555E-12 0.119E-10 -.972E-06
   0.326E-04 0.324E-03 0.431E-02   0.176E-04 0.118E-04 0.165E-02   0.345E-19 0.614E-19 -.207E-18   -.514E-12 0.118E-10 -.972E-06
   0.326E-04 0.324E-03 0.431E-02   0.176E-04 0.118E-04 0.165E-02   0.667E-19 0.453E-19 0.132E-18   -.589E-12 0.118E-10 -.972E-06
   0.326E-04 0.324E-03 0.431E-02   0.176E-04 0.118E-04 0.165E-02   0.193E-19 0.847E-20 0.239E-18   -.769E-12 0.115E-10 -.972E-06
   0.326E-04 0.324E-03 0.431E-02   0.176E-04 0.118E-04 0.165E-02   0.119E-19 0.280E-19 0.513E-18   -.475E-12 0.117E-10 -.972E-06
   0.326E-04 0.324E-03 0.431E-02   0.176E-04 0.118E-04 0.165E-02   -.720E-20 0.220E-19 0.566E-18   -.474E-12 0.117E-10 -.972E-06
   0.326E-04 0.324E-03 0.431E-02   0.176E-04 0.118E-04 0.165E-02   -.364E-19 0.847E-21 0.212E-18   -.621E-12 0.118E-10 -.972E-06
   0.326E-04 0.324E-03 0.431E-02   0.176E-04 0.118E-04 0.165E-02   -.146E-19 -.932E-20 0.740E-18   -.571E-12 0.117E-10 -.972E-06
   0.326E-04 0.324E-03 0.431E-02   0.176E-04 0.118E-04 0.165E-02   -.415E-19 -.339E-20 -.154E-18   -.838E-12 0.114E-10 -.972E-06
   0.326E-04 0.324E-03 0.431E-02   0.176E-04 0.118E-04 0.165E-02   -.476E-19 0.208E-19 -.464E-18   -.476E-12 0.115E-10 -.972E-06
   0.326E-04 0.324E-03 0.431E-02   0.176E-04 0.118E-04 0.165E-02   -.436E-19 0.318E-19 -.252E-18   -.428E-12 0.115E-10 -.972E-06
   0.326E-04 0.324E-03 0.431E-02   0.176E-04 0.118E-04 0.165E-02   -.292E-19 0.296E-19 -.327E-18   -.549E-12 0.115E-10 -.972E-06
   0.326E-04 0.324E-03 0.431E-02   0.176E-04 0.118E-04 0.165E-02   -.885E-19 0.932E-20 -.137E-18   -.631E-12 0.114E-10 -.972E-06
   0.326E-04 0.324E-03 0.431E-02   0.176E-04 0.118E-04 0.165E-02   0.580E-19 0.813E-19 -.257E-18   -.829E-12 0.113E-10 -.972E-06
   0.326E-04 0.324E-03 0.431E-02   0.176E-04 0.118E-04 0.165E-02   0.656E-19 0.851E-19 -.334E-18   -.559E-12 0.113E-10 -.972E-06
   0.326E-04 0.324E-03 0.431E-02   0.176E-04 0.118E-04 0.165E-02   0.714E-19 0.546E-19 -.440E-19   -.398E-12 0.114E-10 -.972E-06
   0.326E-04 0.324E-03 0.431E-02   0.176E-04 0.118E-04 0.165E-02   0.680E-19 0.584E-19 -.136E-19   -.555E-12 0.114E-10 -.972E-06
   0.326E-04 0.324E-03 0.431E-02   0.176E-04 0.118E-04 0.165E-02   0.284E-19 0.720E-19 -.256E-18   -.629E-12 0.113E-10 -.972E-06
   0.326E-04 0.324E-03 0.431E-02   0.176E-04 0.118E-04 0.165E-02   0.724E-19 0.805E-20 -.193E-18   -.792E-12 0.114E-10 -.972E-06
   0.326E-04 0.324E-03 0.431E-02   0.176E-04 0.118E-04 0.165E-02   0.889E-19 0.157E-19 -.232E-18   -.621E-12 0.115E-10 -.972E-06
   0.326E-04 0.324E-03 0.431E-02   0.176E-04 0.118E-04 0.165E-02   0.951E-19 -.974E-20 0.254E-18   -.432E-12 0.116E-10 -.972E-06
   0.326E-04 0.324E-03 0.431E-02   0.176E-04 0.118E-04 0.165E-02   0.985E-19 0.114E-19 -.593E-19   -.478E-12 0.115E-10 -.972E-06
   0.326E-04 0.324E-03 0.431E-02   0.176E-04 0.118E-04 0.165E-02   0.101E-18 0.305E-19 0.132E-18   -.583E-12 0.115E-10 -.972E-06
   -.579E-04 0.482E-04 0.956E+03   -.880E-05 -.591E-05 -.960E+03   0.576E-19 -.678E-19 0.386E+01   0.267E-11 -.165E-11 0.482E-05
   -.579E-04 0.482E-04 0.956E+03   -.880E-05 -.591E-05 -.960E+03   0.124E-17 0.620E-18 0.386E+01   0.272E-11 -.160E-11 0.482E-05
   -.579E-04 0.482E-04 0.956E+03   -.880E-05 -.591E-05 -.960E+03   0.440E-18 0.104E-17 0.386E+01   0.274E-11 -.159E-11 0.482E-05
   -.579E-04 0.482E-04 0.956E+03   -.880E-05 -.591E-05 -.960E+03   0.202E-17 0.518E-18 0.386E+01   0.275E-11 -.161E-11 0.482E-05
   -.579E-04 0.482E-04 0.956E+03   -.880E-05 -.591E-05 -.960E+03   0.772E-18 0.144E-17 0.386E+01   0.269E-11 -.166E-11 0.482E-05
   -.579E-04 0.482E-04 0.956E+03   -.880E-05 -.591E-05 -.960E+03   -.908E-18 0.146E-17 0.386E+01   0.268E-11 -.165E-11 0.482E-05
   -.579E-04 0.482E-04 0.956E+03   -.880E-05 -.591E-05 -.960E+03   -.298E-18 0.117E-17 0.386E+01   0.276E-11 -.158E-11 0.482E-05
   -.579E-04 0.482E-04 0.956E+03   -.880E-05 -.591E-05 -.960E+03   -.113E-17 0.141E-17 0.386E+01   0.272E-11 -.155E-11 0.482E-05
   -.579E-04 0.482E-04 0.956E+03   -.880E-05 -.591E-05 -.960E+03   -.342E-18 0.168E-17 0.386E+01   0.272E-11 -.157E-11 0.482E-05
   -.579E-04 0.482E-04 0.956E+03   -.880E-05 -.591E-05 -.960E+03   -.141E-17 0.213E-17 0.386E+01   0.268E-11 -.162E-11 0.482E-05
   -.579E-04 0.482E-04 0.956E+03   -.880E-05 -.591E-05 -.960E+03   0.667E-18 0.107E-17 0.386E+01   0.266E-11 -.167E-11 0.482E-05
   -.579E-04 0.482E-04 0.956E+03   -.880E-05 -.591E-05 -.960E+03   0.864E-18 0.180E-18 0.386E+01   0.278E-11 -.161E-11 0.482E-05
   -.579E-04 0.482E-04 0.956E+03   -.880E-05 -.591E-05 -.960E+03   0.108E-17 0.200E-18 0.386E+01   0.275E-11 -.163E-11 0.482E-05
   -.579E-04 0.482E-04 0.956E+03   -.880E-05 -.591E-05 -.960E+03   0.153E-17 0.115E-17 0.386E+01   0.272E-11 -.163E-11 0.482E-05
   -.579E-04 0.482E-04 0.956E+03   -.880E-05 -.591E-05 -.960E+03   0.952E-18 0.854E-18 0.386E+01   0.266E-11 -.165E-11 0.482E-05
   -.579E-04 0.482E-04 0.956E+03   -.880E-05 -.591E-05 -.960E+03   0.539E-18 0.891E-18 0.386E+01   0.266E-11 -.176E-11 0.482E-05
   -.579E-04 0.482E-04 0.956E+03   -.880E-05 -.591E-05 -.960E+03   0.549E-18 0.400E-18 0.386E+01   0.277E-11 -.172E-11 0.482E-05
   -.579E-04 0.482E-04 0.956E+03   -.880E-05 -.591E-05 -.960E+03   0.163E-18 0.420E-18 0.386E+01   0.276E-11 -.172E-11 0.482E-05
   -.579E-04 0.482E-04 0.956E+03   -.880E-05 -.591E-05 -.960E+03   0.302E-18 0.116E-17 0.386E+01   0.273E-11 -.172E-11 0.482E-05
   -.579E-04 0.482E-04 0.956E+03   -.880E-05 -.591E-05 -.960E+03   0.759E-18 0.935E-18 0.386E+01   0.266E-11 -.175E-11 0.482E-05
   -.579E-04 0.482E-04 0.956E+03   -.880E-05 -.591E-05 -.960E+03   0.420E-18 0.180E-18 0.386E+01   0.266E-11 -.174E-11 0.482E-05
   -.579E-04 0.482E-04 0.956E+03   -.880E-05 -.591E-05 -.960E+03   0.169E-19 0.796E-18 0.386E+01   0.272E-11 -.171E-11 0.482E-05
   -.579E-04 0.482E-04 0.956E+03   -.880E-05 -.591E-05 -.960E+03   0.508E-18 0.606E-18 0.386E+01   0.277E-11 -.172E-11 0.482E-05
   -.579E-04 0.482E-04 0.956E+03   -.880E-05 -.591E-05 -.960E+03   -.264E-18 0.745E-18 0.386E+01   0.276E-11 -.172E-11 0.482E-05
   -.579E-04 0.482E-04 0.956E+03   -.880E-05 -.591E-05 -.960E+03   0.138E-17 0.180E-18 0.386E+01   0.266E-11 -.174E-11 0.482E-05
   -.579E-04 0.482E-04 -.956E+03   -.880E-05 -.591E-05 0.960E+03   0.302E-18 -.105E-17 -.386E+01   0.265E-11 -.160E-11 -.560E-05
   -.579E-04 0.482E-04 -.956E+03   -.880E-05 -.591E-05 0.960E+03   0.803E-18 -.806E-18 -.386E+01   0.270E-11 -.155E-11 -.560E-05
   -.579E-04 0.482E-04 -.956E+03   -.880E-05 -.591E-05 0.960E+03   0.979E-18 -.593E-18 -.386E+01   0.275E-11 -.155E-11 -.560E-05
   -.579E-04 0.482E-04 -.956E+03   -.880E-05 -.591E-05 0.960E+03   0.122E-17 -.101E-17 -.386E+01   0.275E-11 -.158E-11 -.560E-05
   -.579E-04 0.482E-04 -.956E+03   -.880E-05 -.591E-05 0.960E+03   0.268E-18 -.949E-18 -.386E+01   0.268E-11 -.161E-11 -.560E-05
   -.579E-04 0.482E-04 -.956E+03   -.880E-05 -.591E-05 0.960E+03   -.329E-18 -.125E-18 -.386E+01   0.266E-11 -.163E-11 -.560E-05
   -.579E-04 0.482E-04 -.956E+03   -.880E-05 -.591E-05 0.960E+03   -.657E-18 -.383E-18 -.386E+01   0.275E-11 -.156E-11 -.560E-05
   -.579E-04 0.482E-04 -.956E+03   -.880E-05 -.591E-05 0.960E+03   -.840E-18 0.542E-19 -.386E+01   0.272E-11 -.153E-11 -.560E-05
   -.579E-04 0.482E-04 -.956E+03   -.880E-05 -.591E-05 0.960E+03   -.837E-18 0.661E-18 -.386E+01   0.272E-11 -.157E-11 -.560E-05
   -.579E-04 0.482E-04 -.956E+03   -.880E-05 -.591E-05 0.960E+03   -.861E-18 0.600E-18 -.386E+01   0.268E-11 -.162E-11 -.560E-05
   -.579E-04 0.482E-04 -.956E+03   -.880E-05 -.591E-05 0.960E+03   0.657E-18 0.911E-18 -.386E+01   0.266E-11 -.171E-11 -.560E-05
   -.579E-04 0.482E-04 -.956E+03   -.880E-05 -.591E-05 0.960E+03   0.100E-17 0.667E-18 -.386E+01   0.276E-11 -.166E-11 -.560E-05
   -.579E-04 0.482E-04 -.956E+03   -.880E-05 -.591E-05 0.960E+03   0.123E-17 0.153E-17 -.386E+01   0.274E-11 -.166E-11 -.560E-05
   -.579E-04 0.482E-04 -.956E+03   -.880E-05 -.591E-05 0.960E+03   0.150E-17 0.501E-18 -.386E+01   0.271E-11 -.166E-11 -.560E-05
   -.579E-04 0.482E-04 -.956E+03   -.880E-05 -.591E-05 0.960E+03   0.110E-17 0.315E-18 -.386E+01   0.267E-11 -.168E-11 -.560E-05
   -.579E-04 0.482E-04 -.956E+03   -.880E-05 -.591E-05 0.960E+03   0.390E-18 -.627E-18 -.386E+01   0.264E-11 -.177E-11 -.560E-05
   -.579E-04 0.482E-04 -.956E+03   -.880E-05 -.591E-05 0.960E+03   0.329E-18 -.125E-18 -.386E+01   0.275E-11 -.172E-11 -.560E-05
   -.579E-04 0.482E-04 -.956E+03   -.880E-05 -.591E-05 0.960E+03   0.190E-18 -.420E-18 -.386E+01   0.275E-11 -.172E-11 -.560E-05
   -.579E-04 0.482E-04 -.956E+03   -.880E-05 -.591E-05 0.960E+03   0.928E-18 -.349E-18 -.386E+01   0.273E-11 -.172E-11 -.560E-05
   -.579E-04 0.482E-04 -.956E+03   -.880E-05 -.591E-05 0.960E+03   0.119E-17 -.667E-18 -.386E+01   0.266E-11 -.174E-11 -.560E-05
   -.579E-04 0.482E-04 -.956E+03   -.880E-05 -.591E-05 0.960E+03   0.108E-18 -.143E-17 -.386E+01   0.264E-11 -.170E-11 -.560E-05
   -.579E-04 0.482E-04 -.956E+03   -.880E-05 -.591E-05 0.960E+03   0.678E-20 -.143E-17 -.386E+01   0.272E-11 -.166E-11 -.560E-05
   -.579E-04 0.482E-04 -.956E+03   -.880E-05 -.591E-05 0.960E+03   0.305E-18 -.137E-17 -.386E+01   0.277E-11 -.166E-11 -.560E-05
   -.579E-04 0.482E-04 -.956E+03   -.880E-05 -.591E-05 0.960E+03   0.678E-20 -.154E-17 -.386E+01   0.274E-11 -.167E-11 -.560E-05
   -.579E-04 0.482E-04 -.956E+03   -.880E-05 -.591E-05 0.960E+03   0.110E-17 -.124E-17 -.386E+01   0.266E-11 -.169E-11 -.560E-05
 -----------------------------------------------------------------------------------------------
   -.208E-02 0.105E-01 0.102E+01   0.439E-13 -.574E-12 0.909E-12   0.206E-16 0.131E-16 -.884E-13   0.121E-09 0.206E-09 -.436E-04
 
 
 POSITION                                       TOTAL-FORCE (eV/Angst)
 -----------------------------------------------------------------------------------
     -0.00000      1.80422      3.71976         0.000000      0.000000     -0.000000
      3.12500      1.80422      3.71976         0.000000      0.000000     -0.000000
      6.25000      1.80422      3.71976        -0.000000     -0.000000     -0.000000
      9.37500      1.80422      3.71976         0.000000     -0.000000     -0.000000
     12.50000      1.80422      3.71976         0.000000     -0.000000     -0.000000
     -1.56250      4.51055      3.71976        -0.000000     -0.000000     -0.000000
      1.56250      4.51055      3.71976        -0.000000     -0.000000     -0.000000
      4.68750      4.51055      3.71976         0.000000     -0.000000     -0.000000
      7.81250      4.51055      3.71976        -0.000000     -0.000000     -0.000000
     10.93750      4.51055      3.71976        -0.000000      0.000000     -0.000000
     -3.12500      7.21688      3.71976         0.000000      0.000000     -0.000000
     -0.00000      7.21688      3.71976         0.000000      0.000000     -0.000000
      3.12500      7.21688      3.71976         0.000000     -0.000000     -0.000000
      6.25000      7.21688      3.71976         0.000000      0.000000     -0.000000
      9.37500      7.21688      3.71976         0.000000      0.000000     -0.000000
     -4.68750      9.92321      3.71976         0.000000      0.000000     -0.000000
     -1.56250      9.92321      3.71976         0.000000      0.000000     -0.000000
      1.56250      9.92321      3.71976        -0.000000      0.000000     -0.000000
      4.68750      9.92321      3.71976         0.000000      0.000000     -0.000000
      7.81250      9.92321      3.71976         0.000000      0.000000     -0.000000
     -6.25000     12.62954      3.71976        -0.000000     -0.000000     -0.000000
     -3.12500     12.62954      3.71976        -0.000000      0.000000     -0.000000
     -0.00000     12.62954      3.71976         0.000000     -0.000000     -0.000000
      3.12500     12.62954      3.71976        -0.000000     -0.000000     -0.000000
      6.25000     12.62954      3.71976        -0.000000     -0.000000     -0.000000
      1.56250      0.90211      2.13776         0.000000     -0.000000      0.001376
      4.68750      0.90211      2.13776        -0.000000     -0.000000      0.001376
      7.81250      0.90211      2.13776         0.000000     -0.000000      0.001376
     10.93750      0.90211      2.13776         0.000000     -0.000000      0.001376
     14.06250      0.90211      2.13776        -0.000000     -0.000000      0.001376
      0.00000      3.60844      2.13776        -0.000000     -0.000000      0.001376
      3.12500      3.60844      2.13776        -0.000000     -0.000000      0.001376
      6.25000      3.60844      2.13776         0.000000     -0.000000      0.001376
      9.37500      3.60844      2.13776         0.000000     -0.000000      0.001376
     12.50000      3.60844      2.13776         0.000000     -0.000000      0.001376
     -1.56250      6.31477      2.13776         0.000000     -0.000000      0.001376
      1.56250      6.31477      2.13776         0.000000     -0.000000      0.001376
      4.68750      6.31477      2.13776         0.000000     -0.000000      0.001376
      7.81250      6.31477      2.13776         0.000000     -0.000000      0.001376
     10.93750      6.31477      2.13776         0.000000     -0.000000      0.001376
     -3.12500      9.02110      2.13776         0.000000      0.000000      0.001376
      0.00000      9.02110      2.13776         0.000000     -0.000000      0.001376
      3.12500      9.02110      2.13776         0.000000     -0.000000      0.001376
      6.25000      9.02110      2.13776        -0.000000     -0.000000      0.001376
      9.37500      9.02110      2.13776        -0.000000     -0.000000      0.001376
     -4.68750     11.72743      2.13776         0.000000      0.000000      0.001376
     -1.56250     11.72743      2.13776         0.000000     -0.000000      0.001376
      1.56250     11.72743      2.13776        -0.000000      0.000000      0.001376
      4.68750     11.72743      2.13776         0.000000      0.000000      0.001376
      7.81250     11.72743      2.13776         0.000000      0.000000      0.001376
      1.56250      0.90211      5.30172        -0.000000     -0.000000     -0.001376
      4.68750      0.90211      5.30172        -0.000000     -0.000000     -0.001376
      7.81250      0.90211      5.30172        -0.000000     -0.000000     -0.001376
     10.93750      0.90211      5.30172        -0.000000     -0.000000     -0.001376
     14.06250      0.90211      5.30172        -0.000000     -0.000000     -0.001376
      0.00000      3.60844      5.30172        -0.000000     -0.000000     -0.001376
      3.12500      3.60844      5.30172         0.000000     -0.000000     -0.001376
      6.25000      3.60844      5.30172         0.000000     -0.000000     -0.001376
      9.37500      3.60844      5.30172         0.000000     -0.000000     -0.001376
     12.50000      3.60844      5.30172        -0.000000     -0.000000     -0.001376
     -1.56250      6.31477      5.30172        -0.000000      0.000000     -0.001376
      1.56250      6.31477      5.30172         0.000000      0.000000     -0.001376
      4.68750      6.31477      5.30172        -0.000000      0.000000     -0.001376
      7.81250      6.31477      5.30172        -0.000000      0.000000     -0.001376
     10.93750      6.31477      5.30172        -0.000000      0.000000     -0.001376
     -3.12500      9.02110      5.30172        -0.000000      0.000000     -0.001376
      0.00000      9.02110      5.30172        -0.000000      0.000000     -0.001376
      3.12500      9.02110      5.30172        -0.000000      0.000000     -0.001376
      6.25000      9.02110      5.30172        -0.000000      0.000000     -0.001376
      9.37500      9.02110      5.30172        -0.000000      0.000000     -0.001376
     -4.68750     11.72743      5.30172        -0.000000      0.000000     -0.001376
     -1.56250     11.72743      5.30172        -0.000000      0.000000     -0.001376
      1.56250     11.72743      5.30172        -0.000000      0.000000     -0.001376
      4.68750     11.72743      5.30172        -0.000000      0.000000     -0.001376
      7.81250     11.72743      5.30172        -0.000000      0.000000     -0.001376
 -----------------------------------------------------------------------------------
    total drift:                               -0.002079      0.010500      1.017086


--------------------------------------------------------------------------------------------------------



  FREE ENERGIE OF THE ION-ELECTRON SYSTEM (eV)
  ---------------------------------------------------
  free  energy   TOTEN  =      -400.80534586 eV

  energy  without entropy=     -400.80534586  energy(sigma->0) =     -400.80534586
 


--------------------------------------------------------------------------------------------------------


    POTLOK:  cpu time   13.7861: real time   13.9176


--------------------------------------------------------------------------------------------------------




--------------------------------------------------------------------------------------------------------


  
 reached required accuracy - stopping structural energy minimisation
     LOOP+:  cpu time 4930.9455: real time 4950.3907
    4ORBIT:  cpu time    0.0000: real time    0.0000

 total amount of memory used by VASP MPI-rank0   281277. kBytes
=======================================================================

   base      :      30000. kBytes
   nonlr-proj:      16614. kBytes
   fftplans  :      27081. kBytes
   grid      :      67983. kBytes
   one-center:        311. kBytes
   wavefun   :     139288. kBytes
 
  
  
 General timing and accounting informations for this job:
 ========================================================
  
                  Total CPU time used (sec):     4959.455
                            User time (sec):     4576.647
                          System time (sec):      382.807
                         Elapsed time (sec):     4984.307
  
                   Maximum memory used (kb):      740488.
                   Average memory used (kb):           0.
  
                          Minor page faults:      7696083
                          Major page faults:           58
                 Voluntary context switches:         3233
