<?xml version="1.0" encoding="ISO-8859-1"?>
<modeling>
 <generator>
  <i name="program" type="string">vasp </i>
  <i name="version" type="string">5.4.4.18Apr17-6-g9f103f2a35  </i>
  <i name="subversion" type="string">(build Dec 13 2020 03:13:36) complex            parallel </i>
  <i name="platform" type="string">LinuxIFC </i>
  <i name="date" type="string">2021 01 29 </i>
  <i name="time" type="string">19:06:58 </i>
 </generator>
 <incar>
  <i type="int" name="ISTART">     0</i>
  <i type="string" name="PREC">accurate</i>
  <i type="string" name="ALGO"> NORMAL</i>
  <i type="int" name="ISPIN">     2</i>
  <i type="int" name="NELM">   100</i>
  <i type="int" name="NELMDL">   -10</i>
  <i type="int" name="IBRION">     2</i>
  <i type="int" name="NFREE">    10</i>
  <i name="EDIFF">      0.00000010</i>
  <i name="EDIFFG">     -0.01000000</i>
  <i type="int" name="NSW">   200</i>
  <i type="int" name="ISIF">     2</i>
  <i type="int" name="ISYM">     2</i>
  <i name="ENCUT">    500.00000000</i>
  <i name="POTIM">      0.12500000</i>
  <i type="string" name="LREAL"> AUTO</i>
  <v name="ROPT">     -0.00020000     -0.00020000      0.00000000      0.00000000</v>
  <i type="logical" name="LPLANE"> T  </i>
  <i type="int" name="ISMEAR">     0</i>
  <i name="SIGMA">      0.05000000</i>
  <i type="int" name="NWRITE">     1</i>
  <i type="logical" name="LWAVE"> F  </i>
  <i type="logical" name="LCHARG"> F  </i>
  <i type="logical" name="LVTOT"> F  </i>
  <v type="int" name="KPOINT_BSE">    -1     0     0     0</v>
  <i type="int" name="NELM">   100</i>
  <i type="string" name="GGA"> MK</i>
  <i type="int" name="VOSKOWN">     1</i>
  <i name="PARAM1">      0.12340000</i>
  <i name="PARAM2">      1.00000000</i>
  <i type="logical" name="LUSE_VDW"> T  </i>
  <i name="AGGAC">      0.00000000</i>
  <i type="logical" name="LDIPOL"> T  </i>
  <i type="int" name="IDIPOL">     3</i>
 </incar>
 <structure name="primitive_cell" >
  <crystal>
   <varray name="basis" >
    <v>       3.12500000       0.00000000       0.00000000 </v>
    <v>      -1.56250000       2.70632939       0.00000000 </v>
    <v>       0.00000000       0.00000000      20.00000000 </v>
   </varray>
   <i name="volume">    169.14558668 </i>
   <varray name="rec_basis" >
    <v>       0.32000000       0.18475209       0.00000000 </v>
    <v>       0.00000000       0.36950417       0.00000000 </v>
    <v>       0.00000000       0.00000000       0.05000000 </v>
   </varray>
  </crystal>
  <varray name="positions" >
   <v>       0.33333329      -0.33333340       0.18598797 </v>
   <v>      -0.33333331       0.33333330       0.26508597 </v>
   <v>      -0.33333331       0.33333330       0.10688797 </v>
  </varray>
 </structure>
 <varray name="primitive_index" >
  <v type="int" >        1 </v>
  <v type="int" >       55 </v>
  <v type="int" >       30 </v>
 </varray>
 <kpoints>
  <generation param="Monkhorst-Pack">
   <v type="int" name="divisions">       3        3        1 </v>
   <v name="usershift">      0.00000000       0.00000000       0.00000000 </v>
   <v name="genvec1">      0.33333333       0.00000000       0.00000000 </v>
   <v name="genvec2">      0.00000000       0.33333333       0.00000000 </v>
   <v name="genvec3">      0.00000000       0.00000000       1.00000000 </v>
   <v name="shift">      0.00000000       0.00000000       0.00000000 </v>
  </generation>
  <varray name="kpointlist" >
   <v>       0.00000000       0.00000000       0.00000000 </v>
   <v>       0.33333333      -0.00000000       0.00000000 </v>
   <v>       0.33333333       0.33333333       0.00000000 </v>
  </varray>
  <varray name="weights" >
   <v>       0.11111111 </v>
   <v>       0.66666667 </v>
   <v>       0.22222222 </v>
  </varray>
 </kpoints>
 <parameters>
  <separator name="general" >
   <i type="string" name="SYSTEM">unknown system</i>
   <i type="logical" name="LCOMPAT"> F  </i>
  </separator>
  <separator name="electronic" >
   <i type="string" name="PREC">accura</i>
   <i name="ENMAX">    500.00000000</i>
   <i name="ENAUG">    446.01400000</i>
   <i name="EDIFF">      0.00000010</i>
   <i type="int" name="IALGO">    38</i>
   <i type="int" name="IWAVPR">    11</i>
   <i type="int" name="NBANDS">   428</i>
   <i name="NELECT">    650.00000000</i>
   <i type="int" name="TURBO">     0</i>
   <i type="int" name="IRESTART">     0</i>
   <i type="int" name="NREBOOT">     0</i>
   <i type="int" name="NMIN">     0</i>
   <i name="EREF">      0.00000000</i>
   <separator name="electronic smearing" >
    <i type="int" name="ISMEAR">     0</i>
    <i name="SIGMA">      0.05000000</i>
    <i name="KSPACING">      0.50000000</i>
    <i type="logical" name="KGAMMA"> T  </i>
   </separator>
   <separator name="electronic projectors" >
    <i type="logical" name="LREAL"> T  </i>
    <v name="ROPT">     -0.00020000     -0.00020000</v>
    <i type="int" name="LMAXPAW">  -100</i>
    <i type="int" name="LMAXMIX">     2</i>
    <i type="logical" name="NLSPLINE"> F  </i>
   </separator>
   <separator name="electronic startup" >
    <i type="int" name="ISTART">     0</i>
    <i type="int" name="ICHARG">     2</i>
    <i type="int" name="INIWAV">     1</i>
   </separator>
   <separator name="electronic spin" >
    <i type="int" name="ISPIN">     2</i>
    <i type="logical" name="LNONCOLLINEAR"> F  </i>
    <v name="MAGMOM">      1.00000000      1.00000000      1.00000000      1.00000000      1.00000000      1.00000000      1.00000000      1.00000000      1.00000000      1.00000000      1.00000000      1.00000000      1.00000000      1.00000000      1.00000000      1.00000000      1.00000000      1.00000000      1.00000000      1.00000000
      1.00000000      1.00000000      1.00000000      1.00000000      1.00000000      1.00000000      1.00000000      1.00000000      1.00000000      1.00000000      1.00000000      1.00000000      1.00000000      1.00000000      1.00000000      1.00000000      1.00000000      1.00000000      1.00000000      1.00000000
      1.00000000      1.00000000      1.00000000      1.00000000      1.00000000      1.00000000      1.00000000      1.00000000      1.00000000      1.00000000      1.00000000      1.00000000      1.00000000      1.00000000      1.00000000      1.00000000      1.00000000      1.00000000      1.00000000      1.00000000
      1.00000000      1.00000000      1.00000000      1.00000000      1.00000000      1.00000000      1.00000000      1.00000000      1.00000000      1.00000000      1.00000000      1.00000000      1.00000000      1.00000000      1.00000000</v>
    <i name="NUPDOWN">     -1.00000000</i>
    <i type="logical" name="LSORBIT"> F  </i>
    <v name="SAXIS">      0.00000000      0.00000000      1.00000000</v>
    <i type="logical" name="LSPIRAL"> F  </i>
    <v name="QSPIRAL">      0.00000000      0.00000000      0.00000000</v>
    <i type="logical" name="LZEROZ"> F  </i>
   </separator>
   <separator name="electronic exchange-correlation" >
    <i type="logical" name="LASPH"> F  </i>
    <i type="logical" name="LMETAGGA"> F  </i>
   </separator>
   <separator name="electronic convergence" >
    <i type="int" name="NELM">   100</i>
    <i type="int" name="NELMDL">   -10</i>
    <i type="int" name="NELMIN">     2</i>
    <i name="ENINI">    500.00000000</i>
    <separator name="electronic convergence detail" >
     <i type="logical" name="LDIAG"> T  </i>
     <i type="logical" name="LSUBROT"> F  </i>
     <i name="WEIMIN">      0.00100000</i>
     <i name="EBREAK">      0.00000000</i>
     <i name="DEPER">      0.30000000</i>
     <i type="int" name="NRMM">     4</i>
     <i name="TIME">      0.40000000</i>
    </separator>
   </separator>
   <separator name="electronic mixer" >
    <i name="AMIX">      0.40000000</i>
    <i name="BMIX">      1.00000000</i>
    <i name="AMIN">      0.10000000</i>
    <i name="AMIX_MAG">      1.60000000</i>
    <i name="BMIX_MAG">      1.00000000</i>
    <separator name="electronic mixer details" >
     <i type="int" name="IMIX">     4</i>
     <i type="logical" name="MIXFIRST"> F  </i>
     <i type="int" name="MAXMIX">   -45</i>
     <i name="WC">    100.00000000</i>
     <i type="int" name="INIMIX">     1</i>
     <i type="int" name="MIXPRE">     1</i>
     <i type="int" name="MREMOVE">     5</i>
    </separator>
   </separator>
   <separator name="electronic dipolcorrection" >
    <i type="logical" name="LDIPOL"> T  </i>
    <i type="logical" name="LMONO"> F  </i>
    <i type="int" name="IDIPOL">     3</i>
    <i name="EPSILON">      1.00000000</i>
    <v name="DIPOL">   -100.00000000   -100.00000000   -100.00000000</v>
    <i name="EFIELD">      0.00000000</i>
   </separator>
  </separator>
  <separator name="grids" >
   <i type="int" name="NGX">   120</i>
   <i type="int" name="NGY">   120</i>
   <i type="int" name="NGZ">   150</i>
   <i type="int" name="NGXF">   240</i>
   <i type="int" name="NGYF">   240</i>
   <i type="int" name="NGZF">   300</i>
   <i type="logical" name="ADDGRID"> F  </i>
  </separator>
  <separator name="ionic" >
   <i type="int" name="NSW">   200</i>
   <i type="int" name="IBRION">     2</i>
   <i type="int" name="MDALGO">     0</i>
   <i type="int" name="ISIF">     2</i>
   <i name="PSTRESS">      0.00000000</i>
   <i name="EDIFFG">     -0.01000000</i>
   <i type="int" name="NFREE">    10</i>
   <i name="POTIM">      0.12500000</i>
   <i name="SMASS">     -3.00000000</i>
   <i name="SCALEE">      1.00000000</i>
  </separator>
  <separator name="ionic md" >
   <i name="TEBEG">      0.00010000</i>
   <i name="TEEND">      0.00010000</i>
   <i type="int" name="NBLOCK">     1</i>
   <i type="int" name="KBLOCK">   200</i>
   <i type="int" name="NPACO">   256</i>
   <i name="APACO">     16.00000000</i>
  </separator>
  <separator name="symmetry" >
   <i type="int" name="ISYM">     2</i>
   <i name="SYMPREC">      0.00001000</i>
  </separator>
  <separator name="dos" >
   <i type="int" name="LORBIT">     0</i>
   <v name="RWIGS">     -1.00000000     -1.00000000</v>
   <i type="int" name="NEDOS">   301</i>
   <i name="EMIN">     10.00000000</i>
   <i name="EMAX">    -10.00000000</i>
   <i name="EFERMI">      0.00000000</i>
  </separator>
  <separator name="writing" >
   <i type="int" name="NWRITE">     1</i>
   <i type="logical" name="LWAVE"> F  </i>
   <i type="logical" name="LDOWNSAMPLE"> F  </i>
   <i type="logical" name="LCHARG"> F  </i>
   <i type="logical" name="LPARD"> F  </i>
   <i type="logical" name="LVTOT"> F  </i>
   <i type="logical" name="LVHAR"> F  </i>
   <i type="logical" name="LELF"> F  </i>
   <i type="logical" name="LOPTICS"> F  </i>
   <v name="STM">      0.00000000      0.00000000      0.00000000      0.00000000      0.00000000      0.00000000      0.00000000</v>
  </separator>
  <separator name="performance" >
   <i type="int" name="NPAR">     4</i>
   <i type="int" name="NSIM">     4</i>
   <i type="int" name="NBLK">    -1</i>
   <i type="logical" name="LPLANE"> T  </i>
   <i type="logical" name="LSCALAPACK"> T  </i>
   <i type="logical" name="LSCAAWARE"> F  </i>
   <i type="logical" name="LSCALU"> F  </i>
   <i type="logical" name="LASYNC"> F  </i>
   <i type="logical" name="LORBITALREAL"> F  </i>
  </separator>
  <separator name="miscellaneous" >
   <i type="int" name="IDIOT">     3</i>
   <i type="int" name="ISPECIAL">     0</i>
   <i type="logical" name="LMUSIC"> F  </i>
   <v name="POMASS">     95.94000000     32.06600000</v>
   <v name="DARWINR">      0.00000000      0.00000000</v>
   <v name="DARWINV">      1.00000000      1.00000000</v>
   <i type="logical" name="LCORR"> T  </i>
  </separator>
  <i type="logical" name="GGA_COMPAT"> T  </i>
  <i type="logical" name="LBERRY"> F  </i>
  <i type="int" name="ICORELEVEL">     0</i>
  <i type="logical" name="LDAU"> F  </i>
  <i type="int" name="I_CONSTRAINED_M">     0</i>
  <separator name="electronic exchange-correlation" >
   <i type="string" name="GGA">MK</i>
   <i type="int" name="VOSKOWN">     1</i>
   <i type="logical" name="LHFCALC"> F  </i>
   <i type="string" name="PRECFOCK"></i>
   <i type="logical" name="LSYMGRAD"> F  </i>
   <i type="logical" name="LHFONE"> F  </i>
   <i type="logical" name="LRHFCALC"> F  </i>
   <i type="logical" name="LTHOMAS"> F  </i>
   <i type="logical" name="LMODELHF"> F  </i>
   <i name="ENCUT4O">     -1.00000000</i>
   <i type="int" name="EXXOEP">     0</i>
   <i type="int" name="FOURORBIT">     0</i>
   <i name="AEXX">      0.00000000</i>
   <i name="HFALPHA">      0.00000000</i>
   <i name="MCALPHA">      0.00000000</i>
   <i name="ALDAX">      1.00000000</i>
   <i name="AGGAX">      1.00000000</i>
   <i name="ALDAC">      1.00000000</i>
   <i name="AGGAC">      0.00000000</i>
   <i type="int" name="NKREDX">     1</i>
   <i type="int" name="NKREDY">     1</i>
   <i type="int" name="NKREDZ">     1</i>
   <i type="logical" name="SHIFTRED"> F  </i>
   <i type="logical" name="ODDONLY"> F  </i>
   <i type="logical" name="EVENONLY"> F  </i>
   <i type="int" name="LMAXFOCK">     0</i>
   <i type="int" name="NMAXFOCKAE">     0</i>
   <i type="logical" name="LFOCKAEDFT"> F  </i>
   <i name="HFSCREEN">      0.00000000</i>
   <i name="HFSCREENC">      0.00000000</i>
   <i type="int" name="NBANDSGWLOW">     0</i>
  </separator>
  <separator name="vdW DFT" >
   <i type="logical" name="LUSE_VDW"> T  </i>
   <i name="Zab_VDW">     -0.84910000</i>
   <i name="PARAM1">      0.12340000</i>
   <i name="PARAM2">      1.00000000</i>
   <i name="PARAM3">      0.00000000</i>
  </separator>
  <separator name="model GW" >
   <i type="int" name="MODEL_GW">     0</i>
   <i name="MODEL_EPS0">     33.82911734</i>
   <i name="MODEL_ALPHA">      1.00000000</i>
  </separator>
  <separator name="linear response parameters" >
   <i type="logical" name="LEPSILON"> F  </i>
   <i type="logical" name="LRPA"> F  </i>
   <i type="logical" name="LNABLA"> F  </i>
   <i type="logical" name="LVEL"> F  </i>
   <i type="int" name="KINTER">     0</i>
   <i name="CSHIFT">      0.10000000</i>
   <i name="OMEGAMAX">     -1.00000000</i>
   <i name="DEG_THRESHOLD">      0.00200000</i>
   <i name="RTIME">     -0.10000000</i>
   <i name="WPLASMAI">      0.00000000</i>
   <v name="DFIELD">      0.00000000      0.00000000      0.00000000</v>
   <v name="WPLASMA">      0.00000000      0.00000000      0.00000000      0.00000000      0.00000000      0.00000000      0.00000000      0.00000000      0.00000000</v>
  </separator>
  <separator name="orbital magnetization" >
   <i type="logical" name="NUCIND"> F  </i>
   <v name="MAGPOS">      0.00000000      0.00000000      0.00000000</v>
   <i type="logical" name="LNICSALL"> T  </i>
   <i type="logical" name="ORBITALMAG"> F  </i>
   <i type="logical" name="LMAGBLOCH"> F  </i>
   <i type="logical" name="LCHIMAG"> F  </i>
   <i type="logical" name="LGAUGE"> T  </i>
   <i type="int" name="MAGATOM">     0</i>
   <v name="MAGDIPOL">      0.00000000      0.00000000      0.00000000</v>
   <v name="AVECCONST">      0.00000000      0.00000000      0.00000000</v>
  </separator>
  <separator name="response functions" >
   <i type="logical" name="LADDER"> F  </i>
   <i type="logical" name="LRPAFORCE"> F  </i>
   <i type="logical" name="LFXC"> F  </i>
   <i type="logical" name="LHARTREE"> T  </i>
   <i type="int" name="IBSE">     0</i>
   <v type="int" name="KPOINT">    -1     0     0     0</v>
   <i type="logical" name="LTCTE"> F  </i>
   <i type="logical" name="LTETE"> F  </i>
   <i type="logical" name="LTRIPLET"> F  </i>
   <i type="logical" name="LFXCEPS"> F  </i>
   <i type="logical" name="LFXHEG"> F  </i>
   <i type="int" name="NATURALO">     2</i>
   <i type="logical" name="L2ORDER"> F  </i>
   <i type="logical" name="LMP2LT"> F  </i>
   <i type="logical" name="LUSEW"> F  </i>
   <i name="ENCUTGW">     -2.00000000</i>
   <i name="ENCUTGWSOFT">     -2.00000000</i>
   <i name="ENCUTLF">     -1.00000000</i>
   <i type="int" name="LMAXMP2">    -1</i>
   <i name="SCISSOR">      0.00000000</i>
   <i type="int" name="NOMEGA">     0</i>
   <i type="int" name="NOMEGAR">     0</i>
   <i type="int" name="NBANDSGW">    -1</i>
   <i type="int" name="NBANDSO">    -1</i>
   <i type="int" name="NBANDSV">    -1</i>
   <i type="int" name="NELM">   100</i>
   <i type="int" name="NELMHF">     1</i>
   <i type="int" name="DIM">     3</i>
   <i type="int" name="ANTIRES">     0</i>
   <i name="OMEGAMAX">    -30.00000000</i>
   <i name="OMEGAMIN">    -30.00000000</i>
   <i name="OMEGATL">   -200.00000000</i>
   <i type="int" name="OMEGAGRID">   140</i>
   <i name="CSHIFT">     -0.10000000</i>
   <i type="logical" name="SELFENERGY"> F  </i>
   <i type="logical" name="LSPECTRAL"> F  </i>
   <i type="logical" name="LSPECTRALGW"> F  </i>
   <i type="logical" name="LSINGLES"> F  </i>
   <i type="logical" name="LFERMIGW"> F  </i>
   <i type="logical" name="ODDONLYGW"> F  </i>
   <i type="logical" name="EVENONLYGW"> F  </i>
   <i type="int" name="NKREDLFX">     1</i>
   <i type="int" name="NKREDLFY">     1</i>
   <i type="int" name="NKREDLFZ">     1</i>
   <i type="int" name="MAXMEM">  2800</i>
   <i type="int" name="TELESCOPE">     0</i>
   <i type="int" name="TAUPAR">     1</i>
   <i type="int" name="OMEGAPAR">    -1</i>
   <i name="LAMBDA">      1.00000000</i>
  </separator>
  <separator name="External order field" >
   <i name="OFIELD_KAPPA">      0.00000000</i>
   <v name="OFIELD_K">      0.00000000      0.00000000      0.00000000</v>
   <i name="OFIELD_Q6_NEAR">      0.00000000</i>
   <i name="OFIELD_Q6_FAR">      0.00000000</i>
   <i name="OFIELD_A">      0.00000000</i>
  </separator>
 </parameters>
 <atominfo>
  <atoms>      75 </atoms>
  <types>       2 </types>
  <array name="atoms" >
   <dimension dim="1">ion</dimension>
   <field type="string">element</field>
   <field type="int">atomtype</field>
   <set>
    <rc><c>Mo</c><c>   1</c></rc>
    <rc><c>Mo</c><c>   1</c></rc>
    <rc><c>Mo</c><c>   1</c></rc>
    <rc><c>Mo</c><c>   1</c></rc>
    <rc><c>Mo</c><c>   1</c></rc>
    <rc><c>Mo</c><c>   1</c></rc>
    <rc><c>Mo</c><c>   1</c></rc>
    <rc><c>Mo</c><c>   1</c></rc>
    <rc><c>Mo</c><c>   1</c></rc>
    <rc><c>Mo</c><c>   1</c></rc>
    <rc><c>Mo</c><c>   1</c></rc>
    <rc><c>Mo</c><c>   1</c></rc>
    <rc><c>Mo</c><c>   1</c></rc>
    <rc><c>Mo</c><c>   1</c></rc>
    <rc><c>Mo</c><c>   1</c></rc>
    <rc><c>Mo</c><c>   1</c></rc>
    <rc><c>Mo</c><c>   1</c></rc>
    <rc><c>Mo</c><c>   1</c></rc>
    <rc><c>Mo</c><c>   1</c></rc>
    <rc><c>Mo</c><c>   1</c></rc>
    <rc><c>Mo</c><c>   1</c></rc>
    <rc><c>Mo</c><c>   1</c></rc>
    <rc><c>Mo</c><c>   1</c></rc>
    <rc><c>Mo</c><c>   1</c></rc>
    <rc><c>Mo</c><c>   1</c></rc>
    <rc><c>S </c><c>   2</c></rc>
    <rc><c>S </c><c>   2</c></rc>
    <rc><c>S </c><c>   2</c></rc>
    <rc><c>S </c><c>   2</c></rc>
    <rc><c>S </c><c>   2</c></rc>
    <rc><c>S </c><c>   2</c></rc>
    <rc><c>S </c><c>   2</c></rc>
    <rc><c>S </c><c>   2</c></rc>
    <rc><c>S </c><c>   2</c></rc>
    <rc><c>S </c><c>   2</c></rc>
    <rc><c>S </c><c>   2</c></rc>
    <rc><c>S </c><c>   2</c></rc>
    <rc><c>S </c><c>   2</c></rc>
    <rc><c>S </c><c>   2</c></rc>
    <rc><c>S </c><c>   2</c></rc>
    <rc><c>S </c><c>   2</c></rc>
    <rc><c>S </c><c>   2</c></rc>
    <rc><c>S </c><c>   2</c></rc>
    <rc><c>S </c><c>   2</c></rc>
    <rc><c>S </c><c>   2</c></rc>
    <rc><c>S </c><c>   2</c></rc>
    <rc><c>S </c><c>   2</c></rc>
    <rc><c>S </c><c>   2</c></rc>
    <rc><c>S </c><c>   2</c></rc>
    <rc><c>S </c><c>   2</c></rc>
    <rc><c>S </c><c>   2</c></rc>
    <rc><c>S </c><c>   2</c></rc>
    <rc><c>S </c><c>   2</c></rc>
    <rc><c>S </c><c>   2</c></rc>
    <rc><c>S </c><c>   2</c></rc>
    <rc><c>S </c><c>   2</c></rc>
    <rc><c>S </c><c>   2</c></rc>
    <rc><c>S </c><c>   2</c></rc>
    <rc><c>S </c><c>   2</c></rc>
    <rc><c>S </c><c>   2</c></rc>
    <rc><c>S </c><c>   2</c></rc>
    <rc><c>S </c><c>   2</c></rc>
    <rc><c>S </c><c>   2</c></rc>
    <rc><c>S </c><c>   2</c></rc>
    <rc><c>S </c><c>   2</c></rc>
    <rc><c>S </c><c>   2</c></rc>
    <rc><c>S </c><c>   2</c></rc>
    <rc><c>S </c><c>   2</c></rc>
    <rc><c>S </c><c>   2</c></rc>
    <rc><c>S </c><c>   2</c></rc>
    <rc><c>S </c><c>   2</c></rc>
    <rc><c>S </c><c>   2</c></rc>
    <rc><c>S </c><c>   2</c></rc>
    <rc><c>S </c><c>   2</c></rc>
    <rc><c>S </c><c>   2</c></rc>
   </set>
  </array>
  <array name="atomtypes" >
   <dimension dim="1">type</dimension>
   <field type="int">atomspertype</field>
   <field type="string">element</field>
   <field>mass</field>
   <field>valence</field>
   <field type="string">pseudopotential</field>
   <set>
    <rc><c>  25</c><c>Mo</c><c>     95.94000000</c><c>     14.00000000</c><c>  PAW_PBE Mo_sv 02Feb2006               </c></rc>
    <rc><c>  50</c><c>S </c><c>     32.06600000</c><c>      6.00000000</c><c>  PAW_PBE S 06Sep2000                   </c></rc>
   </set>
  </array>
 </atominfo>
 <structure name="initialpos" >
  <crystal>
   <varray name="basis" >
    <v>      15.62500000       0.00000000       0.00000000 </v>
    <v>      -7.81250000      13.53164693       0.00000000 </v>
    <v>       0.00000000       0.00000000      20.00000000 </v>
   </varray>
   <i name="volume">   4228.63966688 </i>
   <varray name="rec_basis" >
    <v>       0.06400000       0.03695042       0.00000000 </v>
    <v>       0.00000000       0.07390083       0.00000000 </v>
    <v>       0.00000000       0.00000000       0.05000000 </v>
   </varray>
  </crystal>
  <varray name="positions" >
   <v>       0.06666666       0.13333332       0.18598797 </v>
   <v>       0.26666666       0.13333332       0.18598797 </v>
   <v>       0.46666666       0.13333332       0.18598797 </v>
   <v>       0.66666666       0.13333332       0.18598797 </v>
   <v>       0.86666666       0.13333332       0.18598797 </v>
   <v>       0.06666666       0.33333332       0.18598797 </v>
   <v>       0.26666666       0.33333332       0.18598797 </v>
   <v>       0.46666666       0.33333332       0.18598797 </v>
   <v>       0.66666666       0.33333332       0.18598797 </v>
   <v>       0.86666666       0.33333332       0.18598797 </v>
   <v>       0.06666666       0.53333332       0.18598797 </v>
   <v>       0.26666666       0.53333332       0.18598797 </v>
   <v>       0.46666666       0.53333332       0.18598797 </v>
   <v>       0.66666666       0.53333332       0.18598797 </v>
   <v>       0.86666666       0.53333332       0.18598797 </v>
   <v>       0.06666666       0.73333332       0.18598797 </v>
   <v>       0.26666666       0.73333332       0.18598797 </v>
   <v>       0.46666666       0.73333332       0.18598797 </v>
   <v>       0.66666666       0.73333332       0.18598797 </v>
   <v>       0.86666666       0.73333332       0.18598797 </v>
   <v>       0.06666666       0.93333332       0.18598797 </v>
   <v>       0.26666666       0.93333332       0.18598797 </v>
   <v>       0.46666666       0.93333332       0.18598797 </v>
   <v>       0.66666666       0.93333332       0.18598797 </v>
   <v>       0.86666666       0.93333332       0.18598797 </v>
   <v>       0.13333334       0.06666666       0.10688797 </v>
   <v>       0.33333334       0.06666666       0.10688797 </v>
   <v>       0.53333334       0.06666666       0.10688797 </v>
   <v>       0.73333334       0.06666666       0.10688797 </v>
   <v>       0.93333334       0.06666666       0.10688797 </v>
   <v>       0.13333334       0.26666666       0.10688797 </v>
   <v>       0.33333334       0.26666666       0.10688797 </v>
   <v>       0.53333334       0.26666666       0.10688797 </v>
   <v>       0.73333334       0.26666666       0.10688797 </v>
   <v>       0.93333334       0.26666666       0.10688797 </v>
   <v>       0.13333334       0.46666666       0.10688797 </v>
   <v>       0.33333334       0.46666666       0.10688797 </v>
   <v>       0.53333334       0.46666666       0.10688797 </v>
   <v>       0.73333334       0.46666666       0.10688797 </v>
   <v>       0.93333334       0.46666666       0.10688797 </v>
   <v>       0.13333334       0.66666666       0.10688797 </v>
   <v>       0.33333334       0.66666666       0.10688797 </v>
   <v>       0.53333334       0.66666666       0.10688797 </v>
   <v>       0.73333334       0.66666666       0.10688797 </v>
   <v>       0.93333334       0.66666666       0.10688797 </v>
   <v>       0.13333334       0.86666666       0.10688797 </v>
   <v>       0.33333334       0.86666666       0.10688797 </v>
   <v>       0.53333334       0.86666666       0.10688797 </v>
   <v>       0.73333334       0.86666666       0.10688797 </v>
   <v>       0.93333334       0.86666666       0.10688797 </v>
   <v>       0.13333334       0.06666666       0.26508597 </v>
   <v>       0.33333334       0.06666666       0.26508597 </v>
   <v>       0.53333334       0.06666666       0.26508597 </v>
   <v>       0.73333334       0.06666666       0.26508597 </v>
   <v>       0.93333334       0.06666666       0.26508597 </v>
   <v>       0.13333334       0.26666666       0.26508597 </v>
   <v>       0.33333334       0.26666666       0.26508597 </v>
   <v>       0.53333334       0.26666666       0.26508597 </v>
   <v>       0.73333334       0.26666666       0.26508597 </v>
   <v>       0.93333334       0.26666666       0.26508597 </v>
   <v>       0.13333334       0.46666666       0.26508597 </v>
   <v>       0.33333334       0.46666666       0.26508597 </v>
   <v>       0.53333334       0.46666666       0.26508597 </v>
   <v>       0.73333334       0.46666666       0.26508597 </v>
   <v>       0.93333334       0.46666666       0.26508597 </v>
   <v>       0.13333334       0.66666666       0.26508597 </v>
   <v>       0.33333334       0.66666666       0.26508597 </v>
   <v>       0.53333334       0.66666666       0.26508597 </v>
   <v>       0.73333334       0.66666666       0.26508597 </v>
   <v>       0.93333334       0.66666666       0.26508597 </v>
   <v>       0.13333334       0.86666666       0.26508597 </v>
   <v>       0.33333334       0.86666666       0.26508597 </v>
   <v>       0.53333334       0.86666666       0.26508597 </v>
   <v>       0.73333334       0.86666666       0.26508597 </v>
   <v>       0.93333334       0.86666666       0.26508597 </v>
  </varray>
 </structure>
 <calculation>
  <scstep>
   <time name="dav">  121.12  121.97</time>
   <time name="total">  135.13  136.85</time>
   <dipole>
    <v name="dipole">      0.00000000       0.00000000      -0.00009650 </v>
    <i name="Tr[quadrupol]"> -26700.14983735 </i>
    <i name="Echarged">      0.00000000 </i>
    <i name="Edipol_quadrupol">      0.00000000 </i>
    <i name="Eion">      0.00000000 </i>
   </dipole>
   <energy>
    <i name="alphaZ">    699.20103876 </i>
    <i name="ewald"> 143821.17683318 </i>
    <i name="hartreedc">-196510.40933070 </i>
    <i name="XCdc">   2295.56139047 </i>
    <i name="pawpsdc">  48353.43607707 </i>
    <i name="pawaedc"> -47698.82770368 </i>
    <i name="eentropy">     -0.05592005 </i>
    <i name="bandstr">  -6005.67252669 </i>
    <i name="atom">  60545.66099580 </i>
    <i name="e_fr_energy">   5500.07085415 </i>
    <i name="e_wo_entrp">   5500.12677420 </i>
    <i name="e_0_energy">   5500.09881418 </i>
   </energy>
  </scstep>
  <scstep>
   <time name="dav">  132.60  132.92</time>
   <time name="total">  132.60  132.92</time>
   <dipole>
    <v name="dipole">      0.00000000       0.00000000      -0.00009650 </v>
    <i name="Tr[quadrupol]"> -26700.14983735 </i>
    <i name="Echarged">      0.00000000 </i>
    <i name="Edipol_quadrupol">      0.00000000 </i>
    <i name="Eion">      0.00000000 </i>
   </dipole>
   <energy>
    <i name="e_fr_energy">    149.27468773 </i>
    <i name="e_wo_entrp">    149.27468773 </i>
    <i name="e_0_energy">    149.27468773 </i>
   </energy>
  </scstep>
  <scstep>
   <time name="dav">  120.70  120.97</time>
   <time name="total">  120.70  120.97</time>
   <dipole>
    <v name="dipole">      0.00000000       0.00000000      -0.00009650 </v>
    <i name="Tr[quadrupol]"> -26700.14983735 </i>
    <i name="Echarged">      0.00000000 </i>
    <i name="Edipol_quadrupol">      0.00000000 </i>
    <i name="Eion">      0.00000000 </i>
   </dipole>
   <energy>
    <i name="e_fr_energy">   -402.24859423 </i>
    <i name="e_wo_entrp">   -402.24859423 </i>
    <i name="e_0_energy">   -402.24859423 </i>
   </energy>
  </scstep>
  <scstep>
   <time name="dav">  122.86  123.13</time>
   <time name="total">  122.86  123.13</time>
   <dipole>
    <v name="dipole">      0.00000000       0.00000000      -0.00009650 </v>
    <i name="Tr[quadrupol]"> -26700.14983735 </i>
    <i name="Echarged">      0.00000000 </i>
    <i name="Edipol_quadrupol">      0.00000000 </i>
    <i name="Eion">      0.00000000 </i>
   </dipole>
   <energy>
    <i name="e_fr_energy">   -420.25829187 </i>
    <i name="e_wo_entrp">   -420.25829187 </i>
    <i name="e_0_energy">   -420.25829187 </i>
   </energy>
  </scstep>
  <scstep>
   <time name="dav">  130.40  130.70</time>
   <time name="total">  130.40  130.70</time>
   <dipole>
    <v name="dipole">      0.00000000       0.00000000      -0.00009650 </v>
    <i name="Tr[quadrupol]"> -26700.14983735 </i>
    <i name="Echarged">      0.00000000 </i>
    <i name="Edipol_quadrupol">      0.00000000 </i>
    <i name="Eion">      0.00000000 </i>
   </dipole>
   <energy>
    <i name="e_fr_energy">   -420.82711609 </i>
    <i name="e_wo_entrp">   -420.82711609 </i>
    <i name="e_0_energy">   -420.82711609 </i>
   </energy>
  </scstep>
  <scstep>
   <time name="dav">  126.77  127.06</time>
   <time name="total">  126.77  127.06</time>
   <dipole>
    <v name="dipole">      0.00000000       0.00000000      -0.00009650 </v>
    <i name="Tr[quadrupol]"> -26700.14983735 </i>
    <i name="Echarged">      0.00000000 </i>
    <i name="Edipol_quadrupol">      0.00000000 </i>
    <i name="Eion">      0.00000000 </i>
   </dipole>
   <energy>
    <i name="e_fr_energy">   -420.84859419 </i>
    <i name="e_wo_entrp">   -420.84859419 </i>
    <i name="e_0_energy">   -420.84859419 </i>
   </energy>
  </scstep>
  <scstep>
   <time name="dav">  127.33  127.61</time>
   <time name="total">  127.33  127.61</time>
   <dipole>
    <v name="dipole">      0.00000000       0.00000000      -0.00009650 </v>
    <i name="Tr[quadrupol]"> -26700.14983735 </i>
    <i name="Echarged">      0.00000000 </i>
    <i name="Edipol_quadrupol">      0.00000000 </i>
    <i name="Eion">      0.00000000 </i>
   </dipole>
   <energy>
    <i name="e_fr_energy">   -420.84957774 </i>
    <i name="e_wo_entrp">   -420.84957774 </i>
    <i name="e_0_energy">   -420.84957774 </i>
   </energy>
  </scstep>
  <scstep>
   <time name="dav">  124.39  124.67</time>
   <time name="total">  124.39  124.67</time>
   <dipole>
    <v name="dipole">      0.00000000       0.00000000      -0.00009650 </v>
    <i name="Tr[quadrupol]"> -26700.14983735 </i>
    <i name="Echarged">      0.00000000 </i>
    <i name="Edipol_quadrupol">      0.00000000 </i>
    <i name="Eion">      0.00000000 </i>
   </dipole>
   <energy>
    <i name="e_fr_energy">   -420.84962255 </i>
    <i name="e_wo_entrp">   -420.84962255 </i>
    <i name="e_0_energy">   -420.84962255 </i>
   </energy>
  </scstep>
  <scstep>
   <time name="dav">  120.93  121.20</time>
   <time name="total">  120.93  121.20</time>
   <dipole>
    <v name="dipole">      0.00000000       0.00000000      -0.00009650 </v>
    <i name="Tr[quadrupol]"> -26700.14983735 </i>
    <i name="Echarged">      0.00000000 </i>
    <i name="Edipol_quadrupol">      0.00000000 </i>
    <i name="Eion">      0.00000000 </i>
   </dipole>
   <energy>
    <i name="e_fr_energy">   -420.84962517 </i>
    <i name="e_wo_entrp">   -420.84962517 </i>
    <i name="e_0_energy">   -420.84962517 </i>
   </energy>
  </scstep>
  <scstep>
   <time name="dav">  103.55  103.80</time>
   <time name="total">  110.36  110.88</time>
   <dipole>
    <v name="dipole">      0.00000000       0.00000000      -0.00009650 </v>
    <i name="Tr[quadrupol]"> -26700.14983735 </i>
    <i name="Echarged">      0.00000000 </i>
    <i name="Edipol_quadrupol">      0.00000000 </i>
    <i name="Eion">      0.00000000 </i>
   </dipole>
   <energy>
    <i name="e_fr_energy">   -420.84962532 </i>
    <i name="e_wo_entrp">   -420.84962532 </i>
    <i name="e_0_energy">   -420.84962532 </i>
   </energy>
  </scstep>
  <scstep>
   <time name="dav">  111.75  111.99</time>
   <time name="total">  132.38  132.87</time>
   <dipole>
    <v name="dipole">      0.00000000       0.00000000       0.02239852 </v>
    <i name="Tr[quadrupol]"> -26698.80277414 </i>
    <i name="Echarged">      0.00000000 </i>
    <i name="Edipol_quadrupol">      0.00000000 </i>
    <i name="Eion">      0.00000000 </i>
   </dipole>
   <energy>
    <i name="e_fr_energy">   -389.09151947 </i>
    <i name="e_wo_entrp">   -389.09151947 </i>
    <i name="e_0_energy">   -389.09151947 </i>
   </energy>
  </scstep>
  <scstep>
   <time name="dav">  111.20  111.45</time>
   <time name="total">  131.90  132.34</time>
   <dipole>
    <v name="dipole">      0.00000000       0.00000000      -0.28023350 </v>
    <i name="Tr[quadrupol]"> -26706.75946790 </i>
    <i name="Echarged">      0.00000000 </i>
    <i name="Edipol_quadrupol">      0.00000000 </i>
    <i name="Eion">      0.00000000 </i>
   </dipole>
   <energy>
    <i name="e_fr_energy">   -391.58452831 </i>
    <i name="e_wo_entrp">   -391.58452831 </i>
    <i name="e_0_energy">   -391.58452831 </i>
   </energy>
  </scstep>
  <scstep>
   <time name="dav">  110.40  110.64</time>
   <time name="total">  131.11  131.42</time>
   <dipole>
    <v name="dipole">      0.00000000       0.00000000       0.05540290 </v>
    <i name="Tr[quadrupol]"> -26706.59683422 </i>
    <i name="Echarged">      0.00000000 </i>
    <i name="Edipol_quadrupol">      0.00000000 </i>
    <i name="Eion">      0.00000000 </i>
   </dipole>
   <energy>
    <i name="e_fr_energy">   -390.72645232 </i>
    <i name="e_wo_entrp">   -390.72645232 </i>
    <i name="e_0_energy">   -390.72645232 </i>
   </energy>
  </scstep>
  <scstep>
   <time name="dav">  114.37  114.62</time>
   <time name="total">  135.08  135.40</time>
   <dipole>
    <v name="dipole">      0.00000000       0.00000000      -0.16837689 </v>
    <i name="Tr[quadrupol]"> -26708.17889569 </i>
    <i name="Echarged">      0.00000000 </i>
    <i name="Edipol_quadrupol">      0.00000000 </i>
    <i name="Eion">      0.00000000 </i>
   </dipole>
   <energy>
    <i name="e_fr_energy">   -394.52348995 </i>
    <i name="e_wo_entrp">   -394.52348995 </i>
    <i name="e_0_energy">   -394.52348995 </i>
   </energy>
  </scstep>
  <scstep>
   <time name="dav">  113.41  113.66</time>
   <time name="total">  134.04  134.40</time>
   <dipole>
    <v name="dipole">      0.00000000       0.00000000      -0.26219482 </v>
    <i name="Tr[quadrupol]"> -26709.16577184 </i>
    <i name="Echarged">      0.00000000 </i>
    <i name="Edipol_quadrupol">      0.00000000 </i>
    <i name="Eion">      0.00000000 </i>
   </dipole>
   <energy>
    <i name="e_fr_energy">   -396.92952337 </i>
    <i name="e_wo_entrp">   -396.92952337 </i>
    <i name="e_0_energy">   -396.92952337 </i>
   </energy>
  </scstep>
  <scstep>
   <time name="dav">  116.11  116.38</time>
   <time name="total">  136.74  137.07</time>
   <dipole>
    <v name="dipole">      0.00000000       0.00000000       0.01885007 </v>
    <i name="Tr[quadrupol]"> -26710.56153724 </i>
    <i name="Echarged">      0.00000000 </i>
    <i name="Edipol_quadrupol">      0.00000000 </i>
    <i name="Eion">      0.00000000 </i>
   </dipole>
   <energy>
    <i name="e_fr_energy">   -399.76165467 </i>
    <i name="e_wo_entrp">   -399.76165467 </i>
    <i name="e_0_energy">   -399.76165467 </i>
   </energy>
  </scstep>
  <scstep>
   <time name="dav">  117.66  117.92</time>
   <time name="total">  138.21  138.52</time>
   <dipole>
    <v name="dipole">      0.00000000       0.00000000       0.10145400 </v>
    <i name="Tr[quadrupol]"> -26711.60750707 </i>
    <i name="Echarged">      0.00000000 </i>
    <i name="Edipol_quadrupol">      0.00000000 </i>
    <i name="Eion">      0.00000000 </i>
   </dipole>
   <energy>
    <i name="e_fr_energy">   -400.72154835 </i>
    <i name="e_wo_entrp">   -400.72154835 </i>
    <i name="e_0_energy">   -400.72154835 </i>
   </energy>
  </scstep>
  <scstep>
   <time name="dav">  109.24  109.49</time>
   <time name="total">  129.86  130.18</time>
   <dipole>
    <v name="dipole">      0.00000000       0.00000000      -0.02497411 </v>
    <i name="Tr[quadrupol]"> -26711.85463319 </i>
    <i name="Echarged">      0.00000000 </i>
    <i name="Edipol_quadrupol">      0.00000000 </i>
    <i name="Eion">      0.00000000 </i>
   </dipole>
   <energy>
    <i name="e_fr_energy">   -400.79542105 </i>
    <i name="e_wo_entrp">   -400.79542105 </i>
    <i name="e_0_energy">   -400.79542105 </i>
   </energy>
  </scstep>
  <scstep>
   <time name="dav">  109.80  110.40</time>
   <time name="total">  130.39  131.06</time>
   <dipole>
    <v name="dipole">      0.00000000       0.00000000       0.03014707 </v>
    <i name="Tr[quadrupol]"> -26711.99831130 </i>
    <i name="Echarged">      0.00000000 </i>
    <i name="Edipol_quadrupol">      0.00000000 </i>
    <i name="Eion">      0.00000000 </i>
   </dipole>
   <energy>
    <i name="e_fr_energy">   -400.80705149 </i>
    <i name="e_wo_entrp">   -400.80705149 </i>
    <i name="e_0_energy">   -400.80705149 </i>
   </energy>
  </scstep>
  <scstep>
   <time name="dav">  112.86  113.11</time>
   <time name="total">  133.33  133.66</time>
   <dipole>
    <v name="dipole">      0.00000000       0.00000000       0.03941066 </v>
    <i name="Tr[quadrupol]"> -26711.98528590 </i>
    <i name="Echarged">      0.00000000 </i>
    <i name="Edipol_quadrupol">      0.00000000 </i>
    <i name="Eion">      0.00000000 </i>
   </dipole>
   <energy>
    <i name="e_fr_energy">   -400.80535871 </i>
    <i name="e_wo_entrp">   -400.80535871 </i>
    <i name="e_0_energy">   -400.80535871 </i>
   </energy>
  </scstep>
  <scstep>
   <time name="dav">  110.41  110.66</time>
   <time name="total">  131.00  131.32</time>
   <dipole>
    <v name="dipole">      0.00000000       0.00000000       0.02585296 </v>
    <i name="Tr[quadrupol]"> -26712.00733531 </i>
    <i name="Echarged">      0.00000000 </i>
    <i name="Edipol_quadrupol">      0.00000000 </i>
    <i name="Eion">      0.00000000 </i>
   </dipole>
   <energy>
    <i name="e_fr_energy">   -400.80367702 </i>
    <i name="e_wo_entrp">   -400.80367702 </i>
    <i name="e_0_energy">   -400.80367702 </i>
   </energy>
  </scstep>
  <scstep>
   <time name="dav">  113.47  113.72</time>
   <time name="total">  134.01  134.33</time>
   <dipole>
    <v name="dipole">      0.00000000       0.00000000       0.00591951 </v>
    <i name="Tr[quadrupol]"> -26712.03981624 </i>
    <i name="Echarged">      0.00000000 </i>
    <i name="Edipol_quadrupol">      0.00000000 </i>
    <i name="Eion">      0.00000000 </i>
   </dipole>
   <energy>
    <i name="e_fr_energy">   -400.80454700 </i>
    <i name="e_wo_entrp">   -400.80454700 </i>
    <i name="e_0_energy">   -400.80454700 </i>
   </energy>
  </scstep>
  <scstep>
   <time name="dav">  106.39  106.63</time>
   <time name="total">  126.96  127.27</time>
   <dipole>
    <v name="dipole">      0.00000000       0.00000000       0.00172829 </v>
    <i name="Tr[quadrupol]"> -26712.08388543 </i>
    <i name="Echarged">      0.00000000 </i>
    <i name="Edipol_quadrupol">      0.00000000 </i>
    <i name="Eion">      0.00000000 </i>
   </dipole>
   <energy>
    <i name="e_fr_energy">   -400.80526547 </i>
    <i name="e_wo_entrp">   -400.80526547 </i>
    <i name="e_0_energy">   -400.80526547 </i>
   </energy>
  </scstep>
  <scstep>
   <time name="dav">  114.66  114.92</time>
   <time name="total">  135.17  135.49</time>
   <dipole>
    <v name="dipole">      0.00000000       0.00000000       0.00640756 </v>
    <i name="Tr[quadrupol]"> -26712.13860441 </i>
    <i name="Echarged">      0.00000000 </i>
    <i name="Edipol_quadrupol">      0.00000000 </i>
    <i name="Eion">      0.00000000 </i>
   </dipole>
   <energy>
    <i name="e_fr_energy">   -400.80564086 </i>
    <i name="e_wo_entrp">   -400.80564086 </i>
    <i name="e_0_energy">   -400.80564086 </i>
   </energy>
  </scstep>
  <scstep>
   <time name="dav">  119.45  119.72</time>
   <time name="total">  140.04  140.38</time>
   <dipole>
    <v name="dipole">      0.00000000       0.00000000       0.00657107 </v>
    <i name="Tr[quadrupol]"> -26712.18774972 </i>
    <i name="Echarged">      0.00000000 </i>
    <i name="Edipol_quadrupol">      0.00000000 </i>
    <i name="Eion">      0.00000000 </i>
   </dipole>
   <energy>
    <i name="e_fr_energy">   -400.80549732 </i>
    <i name="e_wo_entrp">   -400.80549732 </i>
    <i name="e_0_energy">   -400.80549732 </i>
   </energy>
  </scstep>
  <scstep>
   <time name="dav">  102.98  103.21</time>
   <time name="total">  123.66  123.95</time>
   <dipole>
    <v name="dipole">      0.00000000       0.00000000       0.00670460 </v>
    <i name="Tr[quadrupol]"> -26712.25205483 </i>
    <i name="Echarged">      0.00000000 </i>
    <i name="Edipol_quadrupol">      0.00000000 </i>
    <i name="Eion">      0.00000000 </i>
   </dipole>
   <energy>
    <i name="e_fr_energy">   -400.80532724 </i>
    <i name="e_wo_entrp">   -400.80532724 </i>
    <i name="e_0_energy">   -400.80532724 </i>
   </energy>
  </scstep>
  <scstep>
   <time name="dav">  107.92  108.15</time>
   <time name="total">  128.60  128.90</time>
   <dipole>
    <v name="dipole">      0.00000000       0.00000000      -0.00018633 </v>
    <i name="Tr[quadrupol]"> -26712.32001493 </i>
    <i name="Echarged">      0.00000000 </i>
    <i name="Edipol_quadrupol">      0.00000000 </i>
    <i name="Eion">      0.00000000 </i>
   </dipole>
   <energy>
    <i name="e_fr_energy">   -400.80518045 </i>
    <i name="e_wo_entrp">   -400.80518045 </i>
    <i name="e_0_energy">   -400.80518045 </i>
   </energy>
  </scstep>
  <scstep>
   <time name="dav">  103.19  105.00</time>
   <time name="total">  123.77  126.78</time>
   <dipole>
    <v name="dipole">      0.00000000       0.00000000       0.00933361 </v>
    <i name="Tr[quadrupol]"> -26712.35503359 </i>
    <i name="Echarged">      0.00000000 </i>
    <i name="Edipol_quadrupol">      0.00000000 </i>
    <i name="Eion">      0.00000000 </i>
   </dipole>
   <energy>
    <i name="e_fr_energy">   -400.80523343 </i>
    <i name="e_wo_entrp">   -400.80523343 </i>
    <i name="e_0_energy">   -400.80523343 </i>
   </energy>
  </scstep>
  <scstep>
   <time name="dav">  110.36  110.63</time>
   <time name="total">  130.94  132.11</time>
   <dipole>
    <v name="dipole">      0.00000000       0.00000000       0.01022302 </v>
    <i name="Tr[quadrupol]"> -26712.40686239 </i>
    <i name="Echarged">      0.00000000 </i>
    <i name="Edipol_quadrupol">      0.00000000 </i>
    <i name="Eion">      0.00000000 </i>
   </dipole>
   <energy>
    <i name="e_fr_energy">   -400.80530191 </i>
    <i name="e_wo_entrp">   -400.80530191 </i>
    <i name="e_0_energy">   -400.80530191 </i>
   </energy>
  </scstep>
  <scstep>
   <time name="dav">  103.34  103.56</time>
   <time name="total">  123.98  124.27</time>
   <dipole>
    <v name="dipole">      0.00000000       0.00000000       0.00624890 </v>
    <i name="Tr[quadrupol]"> -26712.40335794 </i>
    <i name="Echarged">      0.00000000 </i>
    <i name="Edipol_quadrupol">      0.00000000 </i>
    <i name="Eion">      0.00000000 </i>
   </dipole>
   <energy>
    <i name="e_fr_energy">   -400.80529813 </i>
    <i name="e_wo_entrp">   -400.80529813 </i>
    <i name="e_0_energy">   -400.80529813 </i>
   </energy>
  </scstep>
  <scstep>
   <time name="dav">  101.76  101.98</time>
   <time name="total">  122.51  122.91</time>
   <dipole>
    <v name="dipole">      0.00000000       0.00000000       0.00547405 </v>
    <i name="Tr[quadrupol]"> -26712.40676951 </i>
    <i name="Echarged">      0.00000000 </i>
    <i name="Edipol_quadrupol">      0.00000000 </i>
    <i name="Eion">      0.00000000 </i>
   </dipole>
   <energy>
    <i name="e_fr_energy">   -400.80533014 </i>
    <i name="e_wo_entrp">   -400.80533014 </i>
    <i name="e_0_energy">   -400.80533014 </i>
   </energy>
  </scstep>
  <scstep>
   <time name="dav">  100.12  100.34</time>
   <time name="total">  120.82  121.10</time>
   <dipole>
    <v name="dipole">      0.00000000       0.00000000       0.00589190 </v>
    <i name="Tr[quadrupol]"> -26712.40755243 </i>
    <i name="Echarged">      0.00000000 </i>
    <i name="Edipol_quadrupol">      0.00000000 </i>
    <i name="Eion">      0.00000000 </i>
   </dipole>
   <energy>
    <i name="e_fr_energy">   -400.80534515 </i>
    <i name="e_wo_entrp">   -400.80534515 </i>
    <i name="e_0_energy">   -400.80534515 </i>
   </energy>
  </scstep>
  <scstep>
   <time name="dav">   97.26   97.47</time>
   <time name="total">  117.97  118.25</time>
   <dipole>
    <v name="dipole">      0.00000000       0.00000000       0.00640717 </v>
    <i name="Tr[quadrupol]"> -26712.40968140 </i>
    <i name="Echarged">      0.00000000 </i>
    <i name="Edipol_quadrupol">      0.00000000 </i>
    <i name="Eion">      0.00000000 </i>
   </dipole>
   <energy>
    <i name="e_fr_energy">   -400.80534721 </i>
    <i name="e_wo_entrp">   -400.80534721 </i>
    <i name="e_0_energy">   -400.80534721 </i>
   </energy>
  </scstep>
  <scstep>
   <time name="dav">   98.40   98.62</time>
   <time name="total">  119.12  119.40</time>
   <dipole>
    <v name="dipole">      0.00000000       0.00000000       0.00680140 </v>
    <i name="Tr[quadrupol]"> -26712.41795739 </i>
    <i name="Echarged">      0.00000000 </i>
    <i name="Edipol_quadrupol">      0.00000000 </i>
    <i name="Eion">      0.00000000 </i>
   </dipole>
   <energy>
    <i name="e_fr_energy">   -400.80534749 </i>
    <i name="e_wo_entrp">   -400.80534749 </i>
    <i name="e_0_energy">   -400.80534749 </i>
   </energy>
  </scstep>
  <scstep>
   <time name="dav">   94.08   94.28</time>
   <time name="total">  114.81  115.09</time>
   <dipole>
    <v name="dipole">      0.00000000       0.00000000       0.00684310 </v>
    <i name="Tr[quadrupol]"> -26712.41962347 </i>
    <i name="Echarged">      0.00000000 </i>
    <i name="Edipol_quadrupol">      0.00000000 </i>
    <i name="Eion">      0.00000000 </i>
   </dipole>
   <energy>
    <i name="e_fr_energy">   -400.80534672 </i>
    <i name="e_wo_entrp">   -400.80534672 </i>
    <i name="e_0_energy">   -400.80534672 </i>
   </energy>
  </scstep>
  <scstep>
   <time name="dav">   91.09   91.29</time>
   <time name="total">  111.72  111.98</time>
   <dipole>
    <v name="dipole">      0.00000000       0.00000000       0.00684120 </v>
    <i name="Tr[quadrupol]"> -26712.42080231 </i>
    <i name="Echarged">      0.00000000 </i>
    <i name="Edipol_quadrupol">      0.00000000 </i>
    <i name="Eion">      0.00000000 </i>
   </dipole>
   <energy>
    <i name="e_fr_energy">   -400.80534602 </i>
    <i name="e_wo_entrp">   -400.80534602 </i>
    <i name="e_0_energy">   -400.80534602 </i>
   </energy>
  </scstep>
  <scstep>
   <time name="dav">   84.65   84.83</time>
   <time name="total">  105.19  105.44</time>
   <dipole>
    <v name="dipole">      0.00000000       0.00000000       0.00683526 </v>
    <i name="Tr[quadrupol]"> -26712.42269367 </i>
    <i name="Echarged">      0.00000000 </i>
    <i name="Edipol_quadrupol">      0.00000000 </i>
    <i name="Eion">      0.00000000 </i>
   </dipole>
   <energy>
    <i name="e_fr_energy">   -400.80534582 </i>
    <i name="e_wo_entrp">   -400.80534582 </i>
    <i name="e_0_energy">   -400.80534582 </i>
   </energy>
  </scstep>
  <scstep>
   <time name="dav">   85.02   85.20</time>
   <time name="total">   98.89   99.11</time>
   <dipole>
    <v name="dipole">      0.00000000       0.00000000       0.00683558 </v>
    <i name="Tr[quadrupol]"> -26712.42362161 </i>
    <i name="Echarged">      0.00000000 </i>
    <i name="Edipol_quadrupol">      0.00000000 </i>
    <i name="Eion">      0.00000000 </i>
   </dipole>
   <energy>
    <i name="alphaZ">    699.18943100 </i>
    <i name="ewald"> 143821.17683318 </i>
    <i name="hartreedc">-196470.63800817 </i>
    <i name="XCdc">   2276.61544778 </i>
    <i name="pawpsdc">  74619.82179742 </i>
    <i name="pawaedc"> -74063.30196346 </i>
    <i name="eentropy">     -0.00000000 </i>
    <i name="bandstr"> -11829.32987941 </i>
    <i name="atom">  60545.66099580 </i>
    <i name="e_fr_energy">   -400.80534586 </i>
    <i name="e_wo_entrp">   -400.80534586 </i>
    <i name="e_0_energy">   -400.80534586 </i>
   </energy>
  </scstep>
  <structure>
   <crystal>
    <varray name="basis" >
     <v>      15.62500000       0.00000000       0.00000000 </v>
     <v>      -7.81250000      13.53164693       0.00000000 </v>
     <v>       0.00000000       0.00000000      20.00000000 </v>
    </varray>
    <i name="volume">   4228.63966688 </i>
    <varray name="rec_basis" >
     <v>       0.06400000       0.03695042       0.00000000 </v>
     <v>       0.00000000       0.07390083       0.00000000 </v>
     <v>       0.00000000       0.00000000       0.05000000 </v>
    </varray>
   </crystal>
   <varray name="positions" >
    <v>       0.06666666       0.13333332       0.18598797 </v>
    <v>       0.26666666       0.13333332       0.18598797 </v>
    <v>       0.46666666       0.13333332       0.18598797 </v>
    <v>       0.66666666       0.13333332       0.18598797 </v>
    <v>       0.86666666       0.13333332       0.18598797 </v>
    <v>       0.06666666       0.33333332       0.18598797 </v>
    <v>       0.26666666       0.33333332       0.18598797 </v>
    <v>       0.46666666       0.33333332       0.18598797 </v>
    <v>       0.66666666       0.33333332       0.18598797 </v>
    <v>       0.86666666       0.33333332       0.18598797 </v>
    <v>       0.06666666       0.53333332       0.18598797 </v>
    <v>       0.26666666       0.53333332       0.18598797 </v>
    <v>       0.46666666       0.53333332       0.18598797 </v>
    <v>       0.66666666       0.53333332       0.18598797 </v>
    <v>       0.86666666       0.53333332       0.18598797 </v>
    <v>       0.06666666       0.73333332       0.18598797 </v>
    <v>       0.26666666       0.73333332       0.18598797 </v>
    <v>       0.46666666       0.73333332       0.18598797 </v>
    <v>       0.66666666       0.73333332       0.18598797 </v>
    <v>       0.86666666       0.73333332       0.18598797 </v>
    <v>       0.06666666       0.93333332       0.18598797 </v>
    <v>       0.26666666       0.93333332       0.18598797 </v>
    <v>       0.46666666       0.93333332       0.18598797 </v>
    <v>       0.66666666       0.93333332       0.18598797 </v>
    <v>       0.86666666       0.93333332       0.18598797 </v>
    <v>       0.13333334       0.06666666       0.10688797 </v>
    <v>       0.33333334       0.06666666       0.10688797 </v>
    <v>       0.53333334       0.06666666       0.10688797 </v>
    <v>       0.73333334       0.06666666       0.10688797 </v>
    <v>       0.93333334       0.06666666       0.10688797 </v>
    <v>       0.13333334       0.26666666       0.10688797 </v>
    <v>       0.33333334       0.26666666       0.10688797 </v>
    <v>       0.53333334       0.26666666       0.10688797 </v>
    <v>       0.73333334       0.26666666       0.10688797 </v>
    <v>       0.93333334       0.26666666       0.10688797 </v>
    <v>       0.13333334       0.46666666       0.10688797 </v>
    <v>       0.33333334       0.46666666       0.10688797 </v>
    <v>       0.53333334       0.46666666       0.10688797 </v>
    <v>       0.73333334       0.46666666       0.10688797 </v>
    <v>       0.93333334       0.46666666       0.10688797 </v>
    <v>       0.13333334       0.66666666       0.10688797 </v>
    <v>       0.33333334       0.66666666       0.10688797 </v>
    <v>       0.53333334       0.66666666       0.10688797 </v>
    <v>       0.73333334       0.66666666       0.10688797 </v>
    <v>       0.93333334       0.66666666       0.10688797 </v>
    <v>       0.13333334       0.86666666       0.10688797 </v>
    <v>       0.33333334       0.86666666       0.10688797 </v>
    <v>       0.53333334       0.86666666       0.10688797 </v>
    <v>       0.73333334       0.86666666       0.10688797 </v>
    <v>       0.93333334       0.86666666       0.10688797 </v>
    <v>       0.13333334       0.06666666       0.26508597 </v>
    <v>       0.33333334       0.06666666       0.26508597 </v>
    <v>       0.53333334       0.06666666       0.26508597 </v>
    <v>       0.73333334       0.06666666       0.26508597 </v>
    <v>       0.93333334       0.06666666       0.26508597 </v>
    <v>       0.13333334       0.26666666       0.26508597 </v>
    <v>       0.33333334       0.26666666       0.26508597 </v>
    <v>       0.53333334       0.26666666       0.26508597 </v>
    <v>       0.73333334       0.26666666       0.26508597 </v>
    <v>       0.93333334       0.26666666       0.26508597 </v>
    <v>       0.13333334       0.46666666       0.26508597 </v>
    <v>       0.33333334       0.46666666       0.26508597 </v>
    <v>       0.53333334       0.46666666       0.26508597 </v>
    <v>       0.73333334       0.46666666       0.26508597 </v>
    <v>       0.93333334       0.46666666       0.26508597 </v>
    <v>       0.13333334       0.66666666       0.26508597 </v>
    <v>       0.33333334       0.66666666       0.26508597 </v>
    <v>       0.53333334       0.66666666       0.26508597 </v>
    <v>       0.73333334       0.66666666       0.26508597 </v>
    <v>       0.93333334       0.66666666       0.26508597 </v>
    <v>       0.13333334       0.86666666       0.26508597 </v>
    <v>       0.33333334       0.86666666       0.26508597 </v>
    <v>       0.53333334       0.86666666       0.26508597 </v>
    <v>       0.73333334       0.86666666       0.26508597 </v>
    <v>       0.93333334       0.86666666       0.26508597 </v>
   </varray>
  </structure>
  <varray name="forces" >
   <v>       0.00000000       0.00000000      -0.00000000 </v>
   <v>       0.00000000       0.00000000      -0.00000000 </v>
   <v>      -0.00000000      -0.00000000      -0.00000000 </v>
   <v>       0.00000000      -0.00000000      -0.00000000 </v>
   <v>       0.00000000      -0.00000000      -0.00000000 </v>
   <v>      -0.00000000      -0.00000000      -0.00000000 </v>
   <v>      -0.00000000      -0.00000000      -0.00000000 </v>
   <v>       0.00000000      -0.00000000      -0.00000000 </v>
   <v>      -0.00000000      -0.00000000      -0.00000000 </v>
   <v>      -0.00000000       0.00000000      -0.00000000 </v>
   <v>       0.00000000       0.00000000      -0.00000000 </v>
   <v>       0.00000000       0.00000000      -0.00000000 </v>
   <v>       0.00000000      -0.00000000      -0.00000000 </v>
   <v>       0.00000000       0.00000000      -0.00000000 </v>
   <v>       0.00000000       0.00000000      -0.00000000 </v>
   <v>       0.00000000       0.00000000      -0.00000000 </v>
   <v>       0.00000000       0.00000000      -0.00000000 </v>
   <v>      -0.00000000       0.00000000      -0.00000000 </v>
   <v>       0.00000000       0.00000000      -0.00000000 </v>
   <v>       0.00000000       0.00000000      -0.00000000 </v>
   <v>      -0.00000000      -0.00000000      -0.00000000 </v>
   <v>      -0.00000000       0.00000000      -0.00000000 </v>
   <v>       0.00000000      -0.00000000      -0.00000000 </v>
   <v>      -0.00000000      -0.00000000      -0.00000000 </v>
   <v>      -0.00000000      -0.00000000      -0.00000000 </v>
   <v>       0.00000000      -0.00000000       0.00137556 </v>
   <v>      -0.00000000      -0.00000000       0.00137556 </v>
   <v>       0.00000000      -0.00000000       0.00137556 </v>
   <v>       0.00000000      -0.00000000       0.00137556 </v>
   <v>      -0.00000000      -0.00000000       0.00137556 </v>
   <v>      -0.00000000      -0.00000000       0.00137556 </v>
   <v>      -0.00000000      -0.00000000       0.00137556 </v>
   <v>       0.00000000      -0.00000000       0.00137556 </v>
   <v>       0.00000000      -0.00000000       0.00137556 </v>
   <v>       0.00000000      -0.00000000       0.00137556 </v>
   <v>       0.00000000      -0.00000000       0.00137556 </v>
   <v>       0.00000000      -0.00000000       0.00137556 </v>
   <v>       0.00000000      -0.00000000       0.00137556 </v>
   <v>       0.00000000      -0.00000000       0.00137556 </v>
   <v>       0.00000000      -0.00000000       0.00137556 </v>
   <v>       0.00000000       0.00000000       0.00137556 </v>
   <v>       0.00000000      -0.00000000       0.00137556 </v>
   <v>       0.00000000      -0.00000000       0.00137556 </v>
   <v>      -0.00000000      -0.00000000       0.00137556 </v>
   <v>      -0.00000000      -0.00000000       0.00137556 </v>
   <v>       0.00000000       0.00000000       0.00137556 </v>
   <v>       0.00000000      -0.00000000       0.00137556 </v>
   <v>      -0.00000000       0.00000000       0.00137556 </v>
   <v>       0.00000000       0.00000000       0.00137556 </v>
   <v>       0.00000000       0.00000000       0.00137556 </v>
   <v>      -0.00000000      -0.00000000      -0.00137556 </v>
   <v>      -0.00000000      -0.00000000      -0.00137556 </v>
   <v>      -0.00000000      -0.00000000      -0.00137556 </v>
   <v>      -0.00000000      -0.00000000      -0.00137556 </v>
   <v>      -0.00000000      -0.00000000      -0.00137556 </v>
   <v>      -0.00000000      -0.00000000      -0.00137556 </v>
   <v>       0.00000000      -0.00000000      -0.00137556 </v>
   <v>       0.00000000      -0.00000000      -0.00137556 </v>
   <v>       0.00000000      -0.00000000      -0.00137556 </v>
   <v>      -0.00000000      -0.00000000      -0.00137556 </v>
   <v>      -0.00000000       0.00000000      -0.00137556 </v>
   <v>       0.00000000       0.00000000      -0.00137556 </v>
   <v>      -0.00000000       0.00000000      -0.00137556 </v>
   <v>      -0.00000000       0.00000000      -0.00137556 </v>
   <v>      -0.00000000       0.00000000      -0.00137556 </v>
   <v>      -0.00000000       0.00000000      -0.00137556 </v>
   <v>      -0.00000000       0.00000000      -0.00137556 </v>
   <v>      -0.00000000       0.00000000      -0.00137556 </v>
   <v>      -0.00000000       0.00000000      -0.00137556 </v>
   <v>      -0.00000000       0.00000000      -0.00137556 </v>
   <v>      -0.00000000       0.00000000      -0.00137556 </v>
   <v>      -0.00000000       0.00000000      -0.00137556 </v>
   <v>      -0.00000000       0.00000000      -0.00137556 </v>
   <v>      -0.00000000       0.00000000      -0.00137556 </v>
   <v>      -0.00000000       0.00000000      -0.00137556 </v>
  </varray>
  <varray name="stress" >
   <v>      10.72723437       0.00000000       0.00000000 </v>
   <v>       0.00000000      10.72723437      -0.00000000 </v>
   <v>      -0.00000000       0.00000000      -0.40052787 </v>
  </varray>
  <energy>
   <i name="e_fr_energy">   -400.80534586 </i>
   <i name="e_wo_entrp">   -400.80534586 </i>
   <i name="e_0_energy">     -0.00000000 </i>
  </energy>
  <time name="totalsc"> 4930.95 4950.39</time>
  <eigenvalues>
   <array>
    <dimension dim="1">band</dimension>
    <dimension dim="2">kpoint</dimension>
    <dimension dim="3">spin</dimension>
    <field>eigene</field>
    <field>occ</field>
    <set>
     <set comment="spin 1">
      <set comment="kpoint 1">
       <r>  -62.7573    1.0000 </r>
       <r>  -62.7409    1.0000 </r>
       <r>  -62.7409    1.0000 </r>
       <r>  -62.7409    1.0000 </r>
       <r>  -62.7409    1.0000 </r>
       <r>  -62.7409    1.0000 </r>
       <r>  -62.7409    1.0000 </r>
       <r>  -62.7194    1.0000 </r>
       <r>  -62.7194    1.0000 </r>
       <r>  -62.7194    1.0000 </r>
       <r>  -62.7194    1.0000 </r>
       <r>  -62.7194    1.0000 </r>
       <r>  -62.7194    1.0000 </r>
       <r>  -62.7143    1.0000 </r>
       <r>  -62.7143    1.0000 </r>
       <r>  -62.7143    1.0000 </r>
       <r>  -62.7143    1.0000 </r>
       <r>  -62.7143    1.0000 </r>
       <r>  -62.7143    1.0000 </r>
       <r>  -62.7061    1.0000 </r>
       <r>  -62.7061    1.0000 </r>
       <r>  -62.7061    1.0000 </r>
       <r>  -62.7061    1.0000 </r>
       <r>  -62.7061    1.0000 </r>
       <r>  -62.7061    1.0000 </r>
       <r>  -37.0829    1.0000 </r>
       <r>  -37.0829    1.0000 </r>
       <r>  -37.0829    1.0000 </r>
       <r>  -37.0829    1.0000 </r>
       <r>  -37.0829    1.0000 </r>
       <r>  -37.0829    1.0000 </r>
       <r>  -37.0729    1.0000 </r>
       <r>  -37.0729    1.0000 </r>
       <r>  -37.0729    1.0000 </r>
       <r>  -37.0729    1.0000 </r>
       <r>  -37.0729    1.0000 </r>
       <r>  -37.0729    1.0000 </r>
       <r>  -36.9973    1.0000 </r>
       <r>  -36.9973    1.0000 </r>
       <r>  -36.9973    1.0000 </r>
       <r>  -36.9973    1.0000 </r>
       <r>  -36.9973    1.0000 </r>
       <r>  -36.9973    1.0000 </r>
       <r>  -36.9596    1.0000 </r>
       <r>  -36.9287    1.0000 </r>
       <r>  -36.9287    1.0000 </r>
       <r>  -36.9287    1.0000 </r>
       <r>  -36.9287    1.0000 </r>
       <r>  -36.9287    1.0000 </r>
       <r>  -36.9287    1.0000 </r>
       <r>  -36.8879    1.0000 </r>
       <r>  -36.8879    1.0000 </r>
       <r>  -36.8879    1.0000 </r>
       <r>  -36.8879    1.0000 </r>
       <r>  -36.8879    1.0000 </r>
       <r>  -36.8879    1.0000 </r>
       <r>  -36.8799    1.0000 </r>
       <r>  -36.8799    1.0000 </r>
       <r>  -36.8799    1.0000 </r>
       <r>  -36.8799    1.0000 </r>
       <r>  -36.8799    1.0000 </r>
       <r>  -36.8799    1.0000 </r>
       <r>  -36.8782    1.0000 </r>
       <r>  -36.8782    1.0000 </r>
       <r>  -36.8782    1.0000 </r>
       <r>  -36.8782    1.0000 </r>
       <r>  -36.8782    1.0000 </r>
       <r>  -36.8782    1.0000 </r>
       <r>  -36.8626    1.0000 </r>
       <r>  -36.8626    1.0000 </r>
       <r>  -36.8626    1.0000 </r>
       <r>  -36.8626    1.0000 </r>
       <r>  -36.8626    1.0000 </r>
       <r>  -36.8626    1.0000 </r>
       <r>  -36.8379    1.0000 </r>
       <r>  -36.8379    1.0000 </r>
       <r>  -36.8379    1.0000 </r>
       <r>  -36.8379    1.0000 </r>
       <r>  -36.8379    1.0000 </r>
       <r>  -36.8379    1.0000 </r>
       <r>  -36.8047    1.0000 </r>
       <r>  -36.8047    1.0000 </r>
       <r>  -36.8047    1.0000 </r>
       <r>  -36.8047    1.0000 </r>
       <r>  -36.8047    1.0000 </r>
       <r>  -36.8047    1.0000 </r>
       <r>  -36.7745    1.0000 </r>
       <r>  -36.7745    1.0000 </r>
       <r>  -36.7745    1.0000 </r>
       <r>  -36.7745    1.0000 </r>
       <r>  -36.7745    1.0000 </r>
       <r>  -36.7745    1.0000 </r>
       <r>  -36.7174    1.0000 </r>
       <r>  -36.7174    1.0000 </r>
       <r>  -36.7174    1.0000 </r>
       <r>  -36.7174    1.0000 </r>
       <r>  -36.7174    1.0000 </r>
       <r>  -36.7174    1.0000 </r>
       <r>  -36.6818    1.0000 </r>
       <r>  -36.6818    1.0000 </r>
       <r>  -16.1746    1.0000 </r>
       <r>  -15.5783    1.0000 </r>
       <r>  -15.5783    1.0000 </r>
       <r>  -15.5783    1.0000 </r>
       <r>  -15.5783    1.0000 </r>
       <r>  -15.5783    1.0000 </r>
       <r>  -15.5783    1.0000 </r>
       <r>  -14.8998    1.0000 </r>
       <r>  -14.6525    1.0000 </r>
       <r>  -14.6525    1.0000 </r>
       <r>  -14.6524    1.0000 </r>
       <r>  -14.6524    1.0000 </r>
       <r>  -14.6524    1.0000 </r>
       <r>  -14.6524    1.0000 </r>
       <r>  -14.6428    1.0000 </r>
       <r>  -14.6428    1.0000 </r>
       <r>  -14.6428    1.0000 </r>
       <r>  -14.6428    1.0000 </r>
       <r>  -14.6428    1.0000 </r>
       <r>  -14.6428    1.0000 </r>
       <r>  -14.3803    1.0000 </r>
       <r>  -14.3803    1.0000 </r>
       <r>  -14.3803    1.0000 </r>
       <r>  -14.3803    1.0000 </r>
       <r>  -14.3803    1.0000 </r>
       <r>  -14.3803    1.0000 </r>
       <r>  -14.2421    1.0000 </r>
       <r>  -14.2421    1.0000 </r>
       <r>  -14.2421    1.0000 </r>
       <r>  -14.2421    1.0000 </r>
       <r>  -14.2421    1.0000 </r>
       <r>  -14.2421    1.0000 </r>
       <r>  -14.1459    1.0000 </r>
       <r>  -14.1459    1.0000 </r>
       <r>  -14.1459    1.0000 </r>
       <r>  -14.1459    1.0000 </r>
       <r>  -14.1459    1.0000 </r>
       <r>  -14.1459    1.0000 </r>
       <r>  -13.9439    1.0000 </r>
       <r>  -13.9439    1.0000 </r>
       <r>  -13.9439    1.0000 </r>
       <r>  -13.9439    1.0000 </r>
       <r>  -13.9439    1.0000 </r>
       <r>  -13.9439    1.0000 </r>
       <r>  -13.9328    1.0000 </r>
       <r>  -13.9328    1.0000 </r>
       <r>  -13.9328    1.0000 </r>
       <r>  -13.9328    1.0000 </r>
       <r>  -13.9328    1.0000 </r>
       <r>  -13.9328    1.0000 </r>
       <r>   -7.7112    1.0000 </r>
       <r>   -7.6260    1.0000 </r>
       <r>   -7.6260    1.0000 </r>
       <r>   -7.6260    1.0000 </r>
       <r>   -7.6260    1.0000 </r>
       <r>   -7.6260    1.0000 </r>
       <r>   -7.6260    1.0000 </r>
       <r>   -7.3150    1.0000 </r>
       <r>   -7.3150    1.0000 </r>
       <r>   -7.3150    1.0000 </r>
       <r>   -7.3150    1.0000 </r>
       <r>   -7.3150    1.0000 </r>
       <r>   -7.3150    1.0000 </r>
       <r>   -7.2725    1.0000 </r>
       <r>   -7.2725    1.0000 </r>
       <r>   -7.2725    1.0000 </r>
       <r>   -7.2725    1.0000 </r>
       <r>   -7.2725    1.0000 </r>
       <r>   -7.2725    1.0000 </r>
       <r>   -7.1276    1.0000 </r>
       <r>   -7.1276    1.0000 </r>
       <r>   -7.1276    1.0000 </r>
       <r>   -7.1276    1.0000 </r>
       <r>   -7.1276    1.0000 </r>
       <r>   -7.1276    1.0000 </r>
       <r>   -7.0684    1.0000 </r>
       <r>   -7.0684    1.0000 </r>
       <r>   -7.0684    1.0000 </r>
       <r>   -7.0684    1.0000 </r>
       <r>   -7.0684    1.0000 </r>
       <r>   -7.0684    1.0000 </r>
       <r>   -6.6752    1.0000 </r>
       <r>   -6.6752    1.0000 </r>
       <r>   -6.6752    1.0000 </r>
       <r>   -6.6752    1.0000 </r>
       <r>   -6.6752    1.0000 </r>
       <r>   -6.6752    1.0000 </r>
       <r>   -6.2385    1.0000 </r>
       <r>   -6.2385    1.0000 </r>
       <r>   -6.2385    1.0000 </r>
       <r>   -6.2385    1.0000 </r>
       <r>   -6.2385    1.0000 </r>
       <r>   -6.2385    1.0000 </r>
       <r>   -5.9829    1.0000 </r>
       <r>   -5.9829    1.0000 </r>
       <r>   -5.9829    1.0000 </r>
       <r>   -5.9829    1.0000 </r>
       <r>   -5.9829    1.0000 </r>
       <r>   -5.9829    1.0000 </r>
       <r>   -5.9241    1.0000 </r>
       <r>   -5.9241    1.0000 </r>
       <r>   -5.9241    1.0000 </r>
       <r>   -5.9241    1.0000 </r>
       <r>   -5.9241    1.0000 </r>
       <r>   -5.9241    1.0000 </r>
       <r>   -5.6769    1.0000 </r>
       <r>   -5.6769    1.0000 </r>
       <r>   -5.6769    1.0000 </r>
       <r>   -5.6769    1.0000 </r>
       <r>   -5.6769    1.0000 </r>
       <r>   -5.6769    1.0000 </r>
       <r>   -5.5032    1.0000 </r>
       <r>   -5.5032    1.0000 </r>
       <r>   -5.5032    1.0000 </r>
       <r>   -5.5032    1.0000 </r>
       <r>   -5.5032    1.0000 </r>
       <r>   -5.5032    1.0000 </r>
       <r>   -5.3974    1.0000 </r>
       <r>   -5.3974    1.0000 </r>
       <r>   -5.3974    1.0000 </r>
       <r>   -5.3974    1.0000 </r>
       <r>   -5.3974    1.0000 </r>
       <r>   -5.3974    1.0000 </r>
       <r>   -5.2458    1.0000 </r>
       <r>   -5.2458    1.0000 </r>
       <r>   -5.2458    1.0000 </r>
       <r>   -5.2458    1.0000 </r>
       <r>   -5.2458    1.0000 </r>
       <r>   -5.2458    1.0000 </r>
       <r>   -5.1361    1.0000 </r>
       <r>   -5.1361    1.0000 </r>
       <r>   -5.1361    1.0000 </r>
       <r>   -5.1361    1.0000 </r>
       <r>   -5.1361    1.0000 </r>
       <r>   -5.1361    1.0000 </r>
       <r>   -4.9634    1.0000 </r>
       <r>   -4.9634    1.0000 </r>
       <r>   -4.9634    1.0000 </r>
       <r>   -4.9634    1.0000 </r>
       <r>   -4.9634    1.0000 </r>
       <r>   -4.9634    1.0000 </r>
       <r>   -4.6879    1.0000 </r>
       <r>   -4.6879    1.0000 </r>
       <r>   -4.6879    1.0000 </r>
       <r>   -4.6879    1.0000 </r>
       <r>   -4.6879    1.0000 </r>
       <r>   -4.6879    1.0000 </r>
       <r>   -4.4708    1.0000 </r>
       <r>   -4.4708    1.0000 </r>
       <r>   -4.2006    1.0000 </r>
       <r>   -4.2006    1.0000 </r>
       <r>   -4.2006    1.0000 </r>
       <r>   -4.2006    1.0000 </r>
       <r>   -4.2006    1.0000 </r>
       <r>   -4.2006    1.0000 </r>
       <r>   -4.1010    1.0000 </r>
       <r>   -4.1010    1.0000 </r>
       <r>   -4.1010    1.0000 </r>
       <r>   -4.1010    1.0000 </r>
       <r>   -4.1010    1.0000 </r>
       <r>   -4.1010    1.0000 </r>
       <r>   -4.0320    1.0000 </r>
       <r>   -4.0320    1.0000 </r>
       <r>   -4.0320    1.0000 </r>
       <r>   -4.0320    1.0000 </r>
       <r>   -4.0320    1.0000 </r>
       <r>   -4.0320    1.0000 </r>
       <r>   -3.9635    1.0000 </r>
       <r>   -3.9092    1.0000 </r>
       <r>   -3.9092    1.0000 </r>
       <r>   -3.9092    1.0000 </r>
       <r>   -3.9092    1.0000 </r>
       <r>   -3.9092    1.0000 </r>
       <r>   -3.9092    1.0000 </r>
       <r>   -3.8672    1.0000 </r>
       <r>   -3.8672    1.0000 </r>
       <r>   -3.8672    1.0000 </r>
       <r>   -3.8672    1.0000 </r>
       <r>   -3.8672    1.0000 </r>
       <r>   -3.8672    1.0000 </r>
       <r>   -3.3332    1.0000 </r>
       <r>   -3.3332    1.0000 </r>
       <r>   -3.2608    1.0000 </r>
       <r>   -3.2608    1.0000 </r>
       <r>   -3.2608    1.0000 </r>
       <r>   -3.2608    1.0000 </r>
       <r>   -3.2608    1.0000 </r>
       <r>   -3.2608    1.0000 </r>
       <r>   -3.1902    1.0000 </r>
       <r>   -3.1902    1.0000 </r>
       <r>   -3.1902    1.0000 </r>
       <r>   -3.1902    1.0000 </r>
       <r>   -3.1902    1.0000 </r>
       <r>   -3.1902    1.0000 </r>
       <r>   -2.9192    1.0000 </r>
       <r>   -2.9192    1.0000 </r>
       <r>   -2.9192    1.0000 </r>
       <r>   -2.9192    1.0000 </r>
       <r>   -2.9192    1.0000 </r>
       <r>   -2.9192    1.0000 </r>
       <r>   -2.8813    1.0000 </r>
       <r>   -2.8813    1.0000 </r>
       <r>   -2.8813    1.0000 </r>
       <r>   -2.8813    1.0000 </r>
       <r>   -2.8813    1.0000 </r>
       <r>   -2.8813    1.0000 </r>
       <r>   -2.7371    1.0000 </r>
       <r>   -2.7371    1.0000 </r>
       <r>   -2.7371    1.0000 </r>
       <r>   -2.7371    1.0000 </r>
       <r>   -2.7371    1.0000 </r>
       <r>   -2.7371    1.0000 </r>
       <r>   -2.5577    1.0000 </r>
       <r>   -2.5577    1.0000 </r>
       <r>   -2.5577    1.0000 </r>
       <r>   -2.5577    1.0000 </r>
       <r>   -2.5577    1.0000 </r>
       <r>   -2.5577    1.0000 </r>
       <r>   -2.2125    1.0000 </r>
       <r>   -2.2094    1.0000 </r>
       <r>   -2.2094    1.0000 </r>
       <r>   -2.2094    1.0000 </r>
       <r>   -2.2094    1.0000 </r>
       <r>   -2.2094    1.0000 </r>
       <r>   -2.2094    1.0000 </r>
       <r>   -0.0366    0.0000 </r>
       <r>   -0.0366    0.0000 </r>
       <r>   -0.0366    0.0000 </r>
       <r>   -0.0366    0.0000 </r>
       <r>   -0.0366    0.0000 </r>
       <r>   -0.0366    0.0000 </r>
       <r>    0.1521    0.0000 </r>
       <r>    0.1521    0.0000 </r>
       <r>    0.1521    0.0000 </r>
       <r>    0.1521    0.0000 </r>
       <r>    0.1521    0.0000 </r>
       <r>    0.1521    0.0000 </r>
       <r>    0.2420    0.0000 </r>
       <r>    0.2420    0.0000 </r>
       <r>    0.2420    0.0000 </r>
       <r>    0.2420    0.0000 </r>
       <r>    0.2420    0.0000 </r>
       <r>    0.2420    0.0000 </r>
       <r>    0.3899    0.0000 </r>
       <r>    0.3899    0.0000 </r>
       <r>    0.3899    0.0000 </r>
       <r>    0.3899    0.0000 </r>
       <r>    0.3899    0.0000 </r>
       <r>    0.3899    0.0000 </r>
       <r>    0.6048    0.0000 </r>
       <r>    0.6048    0.0000 </r>
       <r>    0.6048    0.0000 </r>
       <r>    0.6048    0.0000 </r>
       <r>    0.6048    0.0000 </r>
       <r>    0.6048    0.0000 </r>
       <r>    0.6300    0.0000 </r>
       <r>    0.6300    0.0000 </r>
       <r>    0.6300    0.0000 </r>
       <r>    0.6300    0.0000 </r>
       <r>    0.6300    0.0000 </r>
       <r>    0.6300    0.0000 </r>
       <r>    0.7359    0.0000 </r>
       <r>    0.7359    0.0000 </r>
       <r>    0.7359    0.0000 </r>
       <r>    0.7359    0.0000 </r>
       <r>    0.7359    0.0000 </r>
       <r>    0.7359    0.0000 </r>
       <r>    0.7979    0.0000 </r>
       <r>    0.7979    0.0000 </r>
       <r>    0.7979    0.0000 </r>
       <r>    0.7979    0.0000 </r>
       <r>    0.7979    0.0000 </r>
       <r>    0.7979    0.0000 </r>
       <r>    0.9314    0.0000 </r>
       <r>    0.9314    0.0000 </r>
       <r>    0.9624    0.0000 </r>
       <r>    0.9624    0.0000 </r>
       <r>    0.9624    0.0000 </r>
       <r>    0.9624    0.0000 </r>
       <r>    0.9624    0.0000 </r>
       <r>    0.9624    0.0000 </r>
       <r>    1.1191    0.0000 </r>
       <r>    1.1191    0.0000 </r>
       <r>    1.3030    0.0000 </r>
       <r>    1.3030    0.0000 </r>
       <r>    1.3030    0.0000 </r>
       <r>    1.3030    0.0000 </r>
       <r>    1.3030    0.0000 </r>
       <r>    1.3030    0.0000 </r>
       <r>    1.3346    0.0000 </r>
       <r>    1.3346    0.0000 </r>
       <r>    1.3346    0.0000 </r>
       <r>    1.3346    0.0000 </r>
       <r>    1.3346    0.0000 </r>
       <r>    1.3346    0.0000 </r>
       <r>    1.6991    0.0000 </r>
       <r>    1.6991    0.0000 </r>
       <r>    1.6991    0.0000 </r>
       <r>    1.6991    0.0000 </r>
       <r>    1.6991    0.0000 </r>
       <r>    1.6991    0.0000 </r>
       <r>    1.7928    0.0000 </r>
       <r>    1.7928    0.0000 </r>
       <r>    1.7928    0.0000 </r>
       <r>    1.7928    0.0000 </r>
       <r>    1.7928    0.0000 </r>
       <r>    1.7928    0.0000 </r>
       <r>    2.3487    0.0000 </r>
       <r>    2.3487    0.0000 </r>
       <r>    2.3487    0.0000 </r>
       <r>    2.3487    0.0000 </r>
       <r>    2.3487    0.0000 </r>
       <r>    2.3487    0.0000 </r>
       <r>    2.5077    0.0000 </r>
       <r>    2.5077    0.0000 </r>
       <r>    2.5077    0.0000 </r>
       <r>    2.5077    0.0000 </r>
       <r>    2.5077    0.0000 </r>
       <r>    2.5077    0.0000 </r>
       <r>    2.7355    0.0000 </r>
       <r>    2.7355    0.0000 </r>
       <r>    2.7355    0.0000 </r>
       <r>    2.7355    0.0000 </r>
       <r>    2.7355    0.0000 </r>
       <r>    2.7355    0.0000 </r>
       <r>    2.8987    0.0000 </r>
       <r>    3.0531    0.0000 </r>
       <r>    3.7254    0.0000 </r>
      </set>
      <set comment="kpoint 2">
       <r>  -62.7553    1.0000 </r>
       <r>  -62.7495    1.0000 </r>
       <r>  -62.7442    1.0000 </r>
       <r>  -62.7442    1.0000 </r>
       <r>  -62.7350    1.0000 </r>
       <r>  -62.7350    1.0000 </r>
       <r>  -62.7311    1.0000 </r>
       <r>  -62.7274    1.0000 </r>
       <r>  -62.7274    1.0000 </r>
       <r>  -62.7217    1.0000 </r>
       <r>  -62.7188    1.0000 </r>
       <r>  -62.7188    1.0000 </r>
       <r>  -62.7170    1.0000 </r>
       <r>  -62.7170    1.0000 </r>
       <r>  -62.7125    1.0000 </r>
       <r>  -62.7125    1.0000 </r>
       <r>  -62.7113    1.0000 </r>
       <r>  -62.7113    1.0000 </r>
       <r>  -62.7103    1.0000 </r>
       <r>  -62.7084    1.0000 </r>
       <r>  -62.7084    1.0000 </r>
       <r>  -62.7077    1.0000 </r>
       <r>  -62.7077    1.0000 </r>
       <r>  -62.7048    1.0000 </r>
       <r>  -62.7048    1.0000 </r>
       <r>  -37.1193    1.0000 </r>
       <r>  -37.1003    1.0000 </r>
       <r>  -37.1003    1.0000 </r>
       <r>  -37.0967    1.0000 </r>
       <r>  -37.0967    1.0000 </r>
       <r>  -37.0642    1.0000 </r>
       <r>  -37.0642    1.0000 </r>
       <r>  -37.0501    1.0000 </r>
       <r>  -37.0501    1.0000 </r>
       <r>  -37.0400    1.0000 </r>
       <r>  -37.0400    1.0000 </r>
       <r>  -37.0384    1.0000 </r>
       <r>  -37.0384    1.0000 </r>
       <r>  -37.0161    1.0000 </r>
       <r>  -37.0144    1.0000 </r>
       <r>  -37.0144    1.0000 </r>
       <r>  -36.9558    1.0000 </r>
       <r>  -36.9452    1.0000 </r>
       <r>  -36.9452    1.0000 </r>
       <r>  -36.9448    1.0000 </r>
       <r>  -36.9348    1.0000 </r>
       <r>  -36.9348    1.0000 </r>
       <r>  -36.9296    1.0000 </r>
       <r>  -36.9278    1.0000 </r>
       <r>  -36.9278    1.0000 </r>
       <r>  -36.9174    1.0000 </r>
       <r>  -36.9174    1.0000 </r>
       <r>  -36.9101    1.0000 </r>
       <r>  -36.9030    1.0000 </r>
       <r>  -36.9030    1.0000 </r>
       <r>  -36.8922    1.0000 </r>
       <r>  -36.8889    1.0000 </r>
       <r>  -36.8889    1.0000 </r>
       <r>  -36.8867    1.0000 </r>
       <r>  -36.8867    1.0000 </r>
       <r>  -36.8833    1.0000 </r>
       <r>  -36.8833    1.0000 </r>
       <r>  -36.8747    1.0000 </r>
       <r>  -36.8747    1.0000 </r>
       <r>  -36.8724    1.0000 </r>
       <r>  -36.8724    1.0000 </r>
       <r>  -36.8705    1.0000 </r>
       <r>  -36.8698    1.0000 </r>
       <r>  -36.8698    1.0000 </r>
       <r>  -36.8669    1.0000 </r>
       <r>  -36.8669    1.0000 </r>
       <r>  -36.8658    1.0000 </r>
       <r>  -36.8658    1.0000 </r>
       <r>  -36.8603    1.0000 </r>
       <r>  -36.8603    1.0000 </r>
       <r>  -36.8423    1.0000 </r>
       <r>  -36.8423    1.0000 </r>
       <r>  -36.8290    1.0000 </r>
       <r>  -36.8290    1.0000 </r>
       <r>  -36.8049    1.0000 </r>
       <r>  -36.8049    1.0000 </r>
       <r>  -36.7944    1.0000 </r>
       <r>  -36.7944    1.0000 </r>
       <r>  -36.7916    1.0000 </r>
       <r>  -36.7916    1.0000 </r>
       <r>  -36.7831    1.0000 </r>
       <r>  -36.7781    1.0000 </r>
       <r>  -36.7781    1.0000 </r>
       <r>  -36.7659    1.0000 </r>
       <r>  -36.7659    1.0000 </r>
       <r>  -36.7588    1.0000 </r>
       <r>  -36.7570    1.0000 </r>
       <r>  -36.7386    1.0000 </r>
       <r>  -36.7349    1.0000 </r>
       <r>  -36.7349    1.0000 </r>
       <r>  -36.7128    1.0000 </r>
       <r>  -36.7128    1.0000 </r>
       <r>  -36.7015    1.0000 </r>
       <r>  -36.6989    1.0000 </r>
       <r>  -36.6863    1.0000 </r>
       <r>  -16.1038    1.0000 </r>
       <r>  -15.8983    1.0000 </r>
       <r>  -15.7026    1.0000 </r>
       <r>  -15.7026    1.0000 </r>
       <r>  -15.3420    1.0000 </r>
       <r>  -15.3420    1.0000 </r>
       <r>  -15.1789    1.0000 </r>
       <r>  -15.0194    1.0000 </r>
       <r>  -15.0194    1.0000 </r>
       <r>  -14.8693    1.0000 </r>
       <r>  -14.7805    1.0000 </r>
       <r>  -14.7539    1.0000 </r>
       <r>  -14.6960    1.0000 </r>
       <r>  -14.6960    1.0000 </r>
       <r>  -14.6187    1.0000 </r>
       <r>  -14.6187    1.0000 </r>
       <r>  -14.5412    1.0000 </r>
       <r>  -14.5412    1.0000 </r>
       <r>  -14.5228    1.0000 </r>
       <r>  -14.5228    1.0000 </r>
       <r>  -14.4729    1.0000 </r>
       <r>  -14.4018    1.0000 </r>
       <r>  -14.4018    1.0000 </r>
       <r>  -14.3010    1.0000 </r>
       <r>  -14.3010    1.0000 </r>
       <r>  -14.2961    1.0000 </r>
       <r>  -14.2313    1.0000 </r>
       <r>  -14.2313    1.0000 </r>
       <r>  -14.2164    1.0000 </r>
       <r>  -14.2164    1.0000 </r>
       <r>  -14.1989    1.0000 </r>
       <r>  -14.1989    1.0000 </r>
       <r>  -14.1548    1.0000 </r>
       <r>  -14.0887    1.0000 </r>
       <r>  -14.0887    1.0000 </r>
       <r>  -14.0766    1.0000 </r>
       <r>  -14.0766    1.0000 </r>
[...]
       <r>   -65.1070     0.0000     0.0000 </r>
       <r>   -64.8632     0.0000     0.0000 </r>
       <r>   -64.6193     0.0000     0.0000 </r>
       <r>   -64.3755     0.0000     0.0000 </r>
       <r>   -64.1317     0.0000     0.0000 </r>
       <r>   -63.8878     0.0000     0.0000 </r>
       <r>   -63.6440     0.0000     0.0000 </r>
       <r>   -63.4002     0.0000     0.0000 </r>
       <r>   -63.1563     0.0000     0.0000 </r>
       <r>   -62.9125     0.0000     0.0000 </r>
       <r>   -62.6686    94.1640    22.9608 </r>
       <r>   -62.4248     8.3630    25.0000 </r>
       <r>   -62.1810     0.0000    25.0000 </r>
       <r>   -61.9371     0.0000    25.0000 </r>
       <r>   -61.6933     0.0000    25.0000 </r>
       <r>   -61.4494     0.0000    25.0000 </r>
       <r>   -61.2056     0.0000    25.0000 </r>
       <r>   -60.9618     0.0000    25.0000 </r>
       <r>   -60.7179     0.0000    25.0000 </r>
       <r>   -60.4741     0.0000    25.0000 </r>
       <r>   -60.2303     0.0000    25.0000 </r>
       <r>   -59.9864     0.0000    25.0000 </r>
       <r>   -59.7426     0.0000    25.0000 </r>
       <r>   -59.4987     0.0000    25.0000 </r>
       <r>   -59.2549     0.0000    25.0000 </r>
       <r>   -59.0111     0.0000    25.0000 </r>
       <r>   -58.7672     0.0000    25.0000 </r>
       <r>   -58.5234     0.0000    25.0000 </r>
       <r>   -58.2795     0.0000    25.0000 </r>
       <r>   -58.0357     0.0000    25.0000 </r>
       <r>   -57.7919     0.0000    25.0000 </r>
       <r>   -57.5480     0.0000    25.0000 </r>
       <r>   -57.3042     0.0000    25.0000 </r>
       <r>   -57.0604     0.0000    25.0000 </r>
       <r>   -56.8165     0.0000    25.0000 </r>
       <r>   -56.5727     0.0000    25.0000 </r>
       <r>   -56.3288     0.0000    25.0000 </r>
       <r>   -56.0850     0.0000    25.0000 </r>
       <r>   -55.8412     0.0000    25.0000 </r>
       <r>   -55.5973     0.0000    25.0000 </r>
       <r>   -55.3535     0.0000    25.0000 </r>
       <r>   -55.1097     0.0000    25.0000 </r>
       <r>   -54.8658     0.0000    25.0000 </r>
       <r>   -54.6220     0.0000    25.0000 </r>
       <r>   -54.3781     0.0000    25.0000 </r>
       <r>   -54.1343     0.0000    25.0000 </r>
       <r>   -53.8905     0.0000    25.0000 </r>
       <r>   -53.6466     0.0000    25.0000 </r>
       <r>   -53.4028     0.0000    25.0000 </r>
       <r>   -53.1589     0.0000    25.0000 </r>
       <r>   -52.9151     0.0000    25.0000 </r>
       <r>   -52.6713     0.0000    25.0000 </r>
       <r>   -52.4274     0.0000    25.0000 </r>
       <r>   -52.1836     0.0000    25.0000 </r>
       <r>   -51.9398     0.0000    25.0000 </r>
       <r>   -51.6959     0.0000    25.0000 </r>
       <r>   -51.4521     0.0000    25.0000 </r>
       <r>   -51.2082     0.0000    25.0000 </r>
       <r>   -50.9644     0.0000    25.0000 </r>
       <r>   -50.7206     0.0000    25.0000 </r>
       <r>   -50.4767     0.0000    25.0000 </r>
       <r>   -50.2329     0.0000    25.0000 </r>
       <r>   -49.9891     0.0000    25.0000 </r>
       <r>   -49.7452     0.0000    25.0000 </r>
       <r>   -49.5014     0.0000    25.0000 </r>
       <r>   -49.2575     0.0000    25.0000 </r>
       <r>   -49.0137     0.0000    25.0000 </r>
       <r>   -48.7699     0.0000    25.0000 </r>
       <r>   -48.5260     0.0000    25.0000 </r>
       <r>   -48.2822     0.0000    25.0000 </r>
       <r>   -48.0383     0.0000    25.0000 </r>
       <r>   -47.7945     0.0000    25.0000 </r>
       <r>   -47.5507     0.0000    25.0000 </r>
       <r>   -47.3068     0.0000    25.0000 </r>
       <r>   -47.0630     0.0000    25.0000 </r>
       <r>   -46.8192     0.0000    25.0000 </r>
       <r>   -46.5753     0.0000    25.0000 </r>
       <r>   -46.3315     0.0000    25.0000 </r>
       <r>   -46.0876     0.0000    25.0000 </r>
       <r>   -45.8438     0.0000    25.0000 </r>
       <r>   -45.6000     0.0000    25.0000 </r>
       <r>   -45.3561     0.0000    25.0000 </r>
       <r>   -45.1123     0.0000    25.0000 </r>
       <r>   -44.8684     0.0000    25.0000 </r>
       <r>   -44.6246     0.0000    25.0000 </r>
       <r>   -44.3808     0.0000    25.0000 </r>
       <r>   -44.1369     0.0000    25.0000 </r>
       <r>   -43.8931     0.0000    25.0000 </r>
       <r>   -43.6493     0.0000    25.0000 </r>
       <r>   -43.4054     0.0000    25.0000 </r>
       <r>   -43.1616     0.0000    25.0000 </r>
       <r>   -42.9177     0.0000    25.0000 </r>
       <r>   -42.6739     0.0000    25.0000 </r>
       <r>   -42.4301     0.0000    25.0000 </r>
       <r>   -42.1862     0.0000    25.0000 </r>
       <r>   -41.9424     0.0000    25.0000 </r>
       <r>   -41.6986     0.0000    25.0000 </r>
       <r>   -41.4547     0.0000    25.0000 </r>
       <r>   -41.2109     0.0000    25.0000 </r>
       <r>   -40.9670     0.0000    25.0000 </r>
       <r>   -40.7232     0.0000    25.0000 </r>
       <r>   -40.4794     0.0000    25.0000 </r>
       <r>   -40.2355     0.0000    25.0000 </r>
       <r>   -39.9917     0.0000    25.0000 </r>
       <r>   -39.7478     0.0000    25.0000 </r>
       <r>   -39.5040     0.0000    25.0000 </r>
       <r>   -39.2602     0.0000    25.0000 </r>
       <r>   -39.0163     0.0000    25.0000 </r>
       <r>   -38.7725     0.0000    25.0000 </r>
       <r>   -38.5287     0.0000    25.0000 </r>
       <r>   -38.2848     0.0000    25.0000 </r>
       <r>   -38.0410     0.0000    25.0000 </r>
       <r>   -37.7971     0.0000    25.0000 </r>
       <r>   -37.5533     0.0000    25.0000 </r>
       <r>   -37.3095     0.0000    25.0000 </r>
       <r>   -37.0656    28.9456    32.0581 </r>
       <r>   -36.8218   189.2215    78.1975 </r>
       <r>   -36.5780    89.4062    99.9981 </r>
       <r>   -36.3341     0.0077   100.0000 </r>
       <r>   -36.0903     0.0000   100.0000 </r>
       <r>   -35.8464     0.0000   100.0000 </r>
       <r>   -35.6026     0.0000   100.0000 </r>
       <r>   -35.3588     0.0000   100.0000 </r>
       <r>   -35.1149     0.0000   100.0000 </r>
       <r>   -34.8711     0.0000   100.0000 </r>
       <r>   -34.6272     0.0000   100.0000 </r>
       <r>   -34.3834     0.0000   100.0000 </r>
       <r>   -34.1396     0.0000   100.0000 </r>
       <r>   -33.8957     0.0000   100.0000 </r>
       <r>   -33.6519     0.0000   100.0000 </r>
       <r>   -33.4081     0.0000   100.0000 </r>
       <r>   -33.1642     0.0000   100.0000 </r>
       <r>   -32.9204     0.0000   100.0000 </r>
       <r>   -32.6765     0.0000   100.0000 </r>
       <r>   -32.4327     0.0000   100.0000 </r>
       <r>   -32.1889     0.0000   100.0000 </r>
       <r>   -31.9450     0.0000   100.0000 </r>
       <r>   -31.7012     0.0000   100.0000 </r>
       <r>   -31.4573     0.0000   100.0000 </r>
       <r>   -31.2135     0.0000   100.0000 </r>
       <r>   -30.9697     0.0000   100.0000 </r>
       <r>   -30.7258     0.0000   100.0000 </r>
       <r>   -30.4820     0.0000   100.0000 </r>
       <r>   -30.2382     0.0000   100.0000 </r>
       <r>   -29.9943     0.0000   100.0000 </r>
       <r>   -29.7505     0.0000   100.0000 </r>
       <r>   -29.5066     0.0000   100.0000 </r>
       <r>   -29.2628     0.0000   100.0000 </r>
       <r>   -29.0190     0.0000   100.0000 </r>
       <r>   -28.7751     0.0000   100.0000 </r>
       <r>   -28.5313     0.0000   100.0000 </r>
       <r>   -28.2875     0.0000   100.0000 </r>
       <r>   -28.0436     0.0000   100.0000 </r>
       <r>   -27.7998     0.0000   100.0000 </r>
       <r>   -27.5559     0.0000   100.0000 </r>
       <r>   -27.3121     0.0000   100.0000 </r>
       <r>   -27.0683     0.0000   100.0000 </r>
       <r>   -26.8244     0.0000   100.0000 </r>
       <r>   -26.5806     0.0000   100.0000 </r>
       <r>   -26.3367     0.0000   100.0000 </r>
       <r>   -26.0929     0.0000   100.0000 </r>
       <r>   -25.8491     0.0000   100.0000 </r>
       <r>   -25.6052     0.0000   100.0000 </r>
       <r>   -25.3614     0.0000   100.0000 </r>
       <r>   -25.1176     0.0000   100.0000 </r>
       <r>   -24.8737     0.0000   100.0000 </r>
       <r>   -24.6299     0.0000   100.0000 </r>
       <r>   -24.3860     0.0000   100.0000 </r>
       <r>   -24.1422     0.0000   100.0000 </r>
       <r>   -23.8984     0.0000   100.0000 </r>
       <r>   -23.6545     0.0000   100.0000 </r>
       <r>   -23.4107     0.0000   100.0000 </r>
       <r>   -23.1668     0.0000   100.0000 </r>
       <r>   -22.9230     0.0000   100.0000 </r>
       <r>   -22.6792     0.0000   100.0000 </r>
       <r>   -22.4353     0.0000   100.0000 </r>
       <r>   -22.1915     0.0000   100.0000 </r>
       <r>   -21.9477     0.0000   100.0000 </r>
       <r>   -21.7038     0.0000   100.0000 </r>
       <r>   -21.4600     0.0000   100.0000 </r>
       <r>   -21.2161     0.0000   100.0000 </r>
       <r>   -20.9723     0.0000   100.0000 </r>
       <r>   -20.7285     0.0000   100.0000 </r>
       <r>   -20.4846     0.0000   100.0000 </r>
       <r>   -20.2408     0.0000   100.0000 </r>
       <r>   -19.9970     0.0000   100.0000 </r>
       <r>   -19.7531     0.0000   100.0000 </r>
       <r>   -19.5093     0.0000   100.0000 </r>
       <r>   -19.2654     0.0000   100.0000 </r>
       <r>   -19.0216     0.0000   100.0000 </r>
       <r>   -18.7778     0.0000   100.0000 </r>
       <r>   -18.5339     0.0000   100.0000 </r>
       <r>   -18.2901     0.0000   100.0000 </r>
       <r>   -18.0462     0.0000   100.0000 </r>
       <r>   -17.8024     0.0000   100.0000 </r>
       <r>   -17.5586     0.0000   100.0000 </r>
       <r>   -17.3147     0.0000   100.0000 </r>
       <r>   -17.0709     0.0000   100.0000 </r>
       <r>   -16.8271     0.0000   100.0000 </r>
       <r>   -16.5832     0.0000   100.0000 </r>
       <r>   -16.3394     0.0000   100.0000 </r>
       <r>   -16.0955     2.0702   100.5048 </r>
       <r>   -15.8517     6.3293   102.0481 </r>
       <r>   -15.6079     6.2568   103.5738 </r>
       <r>   -15.3640     5.9376   105.0216 </r>
       <r>   -15.1202     7.0824   106.7485 </r>
       <r>   -14.8764    12.2259   109.7297 </r>
       <r>   -14.6325    21.1365   114.8835 </r>
       <r>   -14.3887    27.9670   121.7030 </r>
       <r>   -14.1448    44.0403   132.4417 </r>
       <r>   -13.9010    62.1595   147.5985 </r>
       <r>   -13.6572     9.8485   150.0000 </r>
       <r>   -13.4133     0.0000   150.0000 </r>
       <r>   -13.1695     0.0000   150.0000 </r>
       <r>   -12.9256     0.0000   150.0000 </r>
       <r>   -12.6818     0.0000   150.0000 </r>
       <r>   -12.4380     0.0000   150.0000 </r>
       <r>   -12.1941     0.0000   150.0000 </r>
       <r>   -11.9503     0.0000   150.0000 </r>
       <r>   -11.7065     0.0000   150.0000 </r>
       <r>   -11.4626     0.0000   150.0000 </r>
       <r>   -11.2188     0.0000   150.0000 </r>
       <r>   -10.9749     0.0000   150.0000 </r>
       <r>   -10.7311     0.0000   150.0000 </r>
       <r>   -10.4873     0.0000   150.0000 </r>
       <r>   -10.2434     0.0000   150.0000 </r>
       <r>    -9.9996     0.0000   150.0000 </r>
       <r>    -9.7557     0.0000   150.0000 </r>
       <r>    -9.5119     0.0000   150.0000 </r>
       <r>    -9.2681     0.0000   150.0000 </r>
       <r>    -9.0242     0.0000   150.0000 </r>
       <r>    -8.7804     0.0000   150.0000 </r>
       <r>    -8.5366     0.0000   150.0000 </r>
       <r>    -8.2927     0.0000   150.0000 </r>
       <r>    -8.0489     0.0000   150.0000 </r>
       <r>    -7.8050     4.1473   151.0113 </r>
       <r>    -7.5612    17.2457   155.2164 </r>
       <r>    -7.3174    26.9940   161.7986 </r>
       <r>    -7.0735    47.7324   173.4376 </r>
       <r>    -6.8297    38.9483   182.9346 </r>
       <r>    -6.5859    14.9367   186.5768 </r>
       <r>    -6.3420     8.0111   188.5302 </r>
       <r>    -6.0982    10.8790   191.1829 </r>
       <r>    -5.8543    40.8614   201.1465 </r>
       <r>    -5.6105    52.3458   213.9104 </r>
       <r>    -5.3667    18.7390   218.4797 </r>
       <r>    -5.1228    53.8770   231.6170 </r>
       <r>    -4.8790    37.0681   240.6556 </r>
       <r>    -4.6351    22.1020   246.0449 </r>
       <r>    -4.3913    20.8421   251.1270 </r>
       <r>    -4.1475    16.1591   255.0672 </r>
       <r>    -3.9036    51.1607   267.5421 </r>
       <r>    -3.6598    46.4988   278.8803 </r>
       <r>    -3.4160    29.3686   286.0415 </r>
       <r>    -3.1721    24.6325   292.0478 </r>
       <r>    -2.9283    30.5347   299.4933 </r>
       <r>    -2.6844    40.8314   309.4496 </r>
       <r>    -2.4406    28.5486   316.4108 </r>
       <r>    -2.1968    27.2282   323.0501 </r>
       <r>    -1.9529     7.8144   324.9556 </r>
       <r>    -1.7091     0.1822   325.0000 </r>
       <r>    -1.4653     0.0000   325.0000 </r>
       <r>    -1.2214     0.0000   325.0000 </r>
       <r>    -0.9776     0.0000   325.0000 </r>
       <r>    -0.7337     0.0000   325.0000 </r>
       <r>    -0.4899     0.0000   325.0000 </r>
       <r>    -0.2461     0.0001   325.0000 </r>
       <r>    -0.0022    11.8985   327.9013 </r>
       <r>     0.2416    43.4954   338.5072 </r>
       <r>     0.4855    47.9315   350.1947 </r>
       <r>     0.7293    54.8749   363.5753 </r>
       <r>     0.9731    52.0766   376.2736 </r>
       <r>     1.2170    48.4048   388.0765 </r>
       <r>     1.4608    21.4158   393.2985 </r>
       <r>     1.7046    27.6079   400.0304 </r>
       <r>     1.9485    14.9071   403.6653 </r>
       <r>     2.1923    15.9719   407.5599 </r>
       <r>     2.4362    38.1751   416.8684 </r>
       <r>     2.6800    16.3472   420.8545 </r>
       <r>     2.9238    10.8886   423.5095 </r>
       <r>     3.1677    11.0267   426.1983 </r>
       <r>     3.4115     6.9162   427.8847 </r>
       <r>     3.6554     0.0200   427.8896 </r>
       <r>     3.8992     0.4529   428.0000 </r>
       <r>     4.1430     0.0000   428.0000 </r>
       <r>     4.3869     0.0000   428.0000 </r>
       <r>     4.6307     0.0000   428.0000 </r>
       <r>     4.8745     0.0000   428.0000 </r>
       <r>     5.1184     0.0000   428.0000 </r>
       <r>     5.3622     0.0000   428.0000 </r>
       <r>     5.6061     0.0000   428.0000 </r>
       <r>     5.8499     0.0000   428.0000 </r>
       <r>     6.0937     0.0000   428.0000 </r>
       <r>     6.3376     0.0000   428.0000 </r>
       <r>     6.5814     0.0000   428.0000 </r>
       <r>     6.8252     0.0000   428.0000 </r>
       <r>     7.0691     0.0000   428.0000 </r>
      </set>
     </set>
    </array>
   </total>
  </dos>
 </calculation>
 <structure name="finalpos" >
  <crystal>
   <varray name="basis" >
    <v>      15.62500000       0.00000000       0.00000000 </v>
    <v>      -7.81250000      13.53164693       0.00000000 </v>
    <v>       0.00000000       0.00000000      20.00000000 </v>
   </varray>
   <i name="volume">   4228.63966688 </i>
   <varray name="rec_basis" >
    <v>       0.06400000       0.03695042       0.00000000 </v>
    <v>       0.00000000       0.07390083       0.00000000 </v>
    <v>       0.00000000       0.00000000       0.05000000 </v>
   </varray>
  </crystal>
  <varray name="positions" >
   <v>       0.06666666       0.13333332       0.18598797 </v>
   <v>       0.26666666       0.13333332       0.18598797 </v>
   <v>       0.46666666       0.13333332       0.18598797 </v>
   <v>       0.66666666       0.13333332       0.18598797 </v>
   <v>       0.86666666       0.13333332       0.18598797 </v>
   <v>       0.06666666       0.33333332       0.18598797 </v>
   <v>       0.26666666       0.33333332       0.18598797 </v>
   <v>       0.46666666       0.33333332       0.18598797 </v>
   <v>       0.66666666       0.33333332       0.18598797 </v>
   <v>       0.86666666       0.33333332       0.18598797 </v>
   <v>       0.06666666       0.53333332       0.18598797 </v>
   <v>       0.26666666       0.53333332       0.18598797 </v>
   <v>       0.46666666       0.53333332       0.18598797 </v>
   <v>       0.66666666       0.53333332       0.18598797 </v>
   <v>       0.86666666       0.53333332       0.18598797 </v>
   <v>       0.06666666       0.73333332       0.18598797 </v>
   <v>       0.26666666       0.73333332       0.18598797 </v>
   <v>       0.46666666       0.73333332       0.18598797 </v>
   <v>       0.66666666       0.73333332       0.18598797 </v>
   <v>       0.86666666       0.73333332       0.18598797 </v>
   <v>       0.06666666       0.93333332       0.18598797 </v>
   <v>       0.26666666       0.93333332       0.18598797 </v>
   <v>       0.46666666       0.93333332       0.18598797 </v>
   <v>       0.66666666       0.93333332       0.18598797 </v>
   <v>       0.86666666       0.93333332       0.18598797 </v>
   <v>       0.13333334       0.06666666       0.10688797 </v>
   <v>       0.33333334       0.06666666       0.10688797 </v>
   <v>       0.53333334       0.06666666       0.10688797 </v>
   <v>       0.73333334       0.06666666       0.10688797 </v>
   <v>       0.93333334       0.06666666       0.10688797 </v>
   <v>       0.13333334       0.26666666       0.10688797 </v>
   <v>       0.33333334       0.26666666       0.10688797 </v>
   <v>       0.53333334       0.26666666       0.10688797 </v>
   <v>       0.73333334       0.26666666       0.10688797 </v>
   <v>       0.93333334       0.26666666       0.10688797 </v>
   <v>       0.13333334       0.46666666       0.10688797 </v>
   <v>       0.33333334       0.46666666       0.10688797 </v>
   <v>       0.53333334       0.46666666       0.10688797 </v>
   <v>       0.73333334       0.46666666       0.10688797 </v>
   <v>       0.93333334       0.46666666       0.10688797 </v>
   <v>       0.13333334       0.66666666       0.10688797 </v>
   <v>       0.33333334       0.66666666       0.10688797 </v>
   <v>       0.53333334       0.66666666       0.10688797 </v>
   <v>       0.73333334       0.66666666       0.10688797 </v>
   <v>       0.93333334       0.66666666       0.10688797 </v>
   <v>       0.13333334       0.86666666       0.10688797 </v>
   <v>       0.33333334       0.86666666       0.10688797 </v>
   <v>       0.53333334       0.86666666       0.10688797 </v>
   <v>       0.73333334       0.86666666       0.10688797 </v>
   <v>       0.93333334       0.86666666       0.10688797 </v>
   <v>       0.13333334       0.06666666       0.26508597 </v>
   <v>       0.33333334       0.06666666       0.26508597 </v>
   <v>       0.53333334       0.06666666       0.26508597 </v>
   <v>       0.73333334       0.06666666       0.26508597 </v>
   <v>       0.93333334       0.06666666       0.26508597 </v>
   <v>       0.13333334       0.26666666       0.26508597 </v>
   <v>       0.33333334       0.26666666       0.26508597 </v>
   <v>       0.53333334       0.26666666       0.26508597 </v>
   <v>       0.73333334       0.26666666       0.26508597 </v>
   <v>       0.93333334       0.26666666       0.26508597 </v>
   <v>       0.13333334       0.46666666       0.26508597 </v>
   <v>       0.33333334       0.46666666       0.26508597 </v>
   <v>       0.53333334       0.46666666       0.26508597 </v>
   <v>       0.73333334       0.46666666       0.26508597 </v>
   <v>       0.93333334       0.46666666       0.26508597 </v>
   <v>       0.13333334       0.66666666       0.26508597 </v>
   <v>       0.33333334       0.66666666       0.26508597 </v>
   <v>       0.53333334       0.66666666       0.26508597 </v>
   <v>       0.73333334       0.66666666       0.26508597 </v>
   <v>       0.93333334       0.66666666       0.26508597 </v>
   <v>       0.13333334       0.86666666       0.26508597 </v>
   <v>       0.33333334       0.86666666       0.26508597 </v>
   <v>       0.53333334       0.86666666       0.26508597 </v>
   <v>       0.73333334       0.86666666       0.26508597 </v>
   <v>       0.93333334       0.86666666       0.26508597 </v>
  </varray>
 </structure>
</modeling>
