<?xml version="1.0" encoding="ISO-8859-1"?>
<modeling>
 <generator>
  <i name="program" type="string">vasp </i>
  <i name="version" type="string">6.2.1  </i>
  <i name="subversion" type="string">16May21 (build Jun 03 2021 09:39:59) complex                          parallel </i>
  <i name="platform" type="string">IFC15_impi </i>
  <i name="date" type="string">2021 06 04 </i>
  <i name="time" type="string">23:45:51 </i>
 </generator>
 <incar>
  <i type="int" name="ISTART">     0</i>
  <i type="string" name="PREC">ACCURATE</i>
  <i type="string" name="ALGO">NORMAL</i>
  <i type="int" name="ISPIN">     2</i>
  <i type="int" name="NELM">   100</i>
  <i type="int" name="NELMDL">   -10</i>
  <i type="int" name="IBRION">     1</i>
  <i type="int" name="NFREE">    10</i>
  <i name="EDIFF">      0.00000100</i>
  <i name="EDIFFG">     -0.02000000</i>
  <i type="int" name="NSW">   200</i>
  <i type="int" name="ISYM">     2</i>
  <i name="ENCUT">    500.00000000</i>
  <i name="POTIM">      0.12500000</i>
  <i type="string" name="LREAL">AUTO</i>
  <v name="ROPT">      0.00020000      0.00020000      0.00020000      0.00020000</v>
  <i type="logical" name="LPLANE"> T  </i>
  <i type="int" name="ISMEAR">     1</i>
  <i name="SIGMA">      0.10000000</i>
  <i type="int" name="NWRITE">     1</i>
  <i type="logical" name="LWAVE"> F  </i>
  <i type="logical" name="LCHARG"> F  </i>
  <i type="logical" name="LVTOT"> F  </i>
  <i type="string" name="GGA">MK</i>
  <i type="int" name="VOSKOWN">     1</i>
  <i name="PARAM1">      0.12340000</i>
  <i name="PARAM2">      1.00000000</i>
  <i type="logical" name="LUSE_VDW"> T  </i>
  <i name="AGGAC">      0.00000000</i>
  <i type="logical" name="LDIPOL"> T  </i>
  <i type="int" name="IDIPOL">     3</i>
  <i name="SPRING">     -5.00000000</i>
 </incar>
 <primitive_cell>
  <structure name="primitive_cell" >
   <crystal>
    <varray name="basis" >
     <v>      15.62500000       0.00000000       0.00000000 </v>
     <v>      -7.81250000      13.53164693       0.00000000 </v>
     <v>       0.00000000       0.00000000      20.00000000 </v>
    </varray>
    <i name="volume">   4228.63966688 </i>
    <varray name="rec_basis" >
     <v>       0.06400000       0.03695042       0.00000000 </v>
     <v>       0.00000000       0.07390083       0.00000000 </v>
     <v>       0.00000000       0.00000000       0.05000000 </v>
    </varray>
   </crystal>
   <varray name="positions" >
    <v>       0.06714509       0.13378185       0.18703308 </v>
    <v>       0.26653016       0.13387030       0.18704339 </v>
    <v>       0.46650653       0.13351051       0.18736881 </v>
    <v>       0.66668963       0.13325246       0.18757112 </v>
    <v>       0.86692257       0.13337659       0.18742450 </v>
    <v>       0.06741378       0.33364408       0.18553515 </v>
    <v>       0.26744228       0.33622273       0.18261013 </v>
    <v>       0.46623449       0.33371907       0.18554762 </v>
    <v>       0.66644891       0.33339666       0.18731960 </v>
    <v>       0.86696361       0.33340548       0.18737233 </v>
    <v>       0.06732087       0.53323962       0.18703101 </v>
    <v>       0.26743770       0.53020024       0.18272247 </v>
    <v>       0.46163858       0.53037106       0.18338141 </v>
    <v>       0.66536675       0.53264166       0.18737732 </v>
    <v>       0.86653068       0.53325351       0.18788493 </v>
    <v>       0.06657260       0.73319734       0.18787816 </v>
    <v>       0.26629402       0.73238157       0.18687788 </v>
    <v>       0.46528592       0.73192113       0.18613549 </v>
    <v>       0.66545626       0.73188794       0.18843840 </v>
    <v>       0.86642483       0.73314731       0.18816854 </v>
    <v>       0.06663260       0.93339842       0.18798686 </v>
    <v>       0.26673874       0.93331640       0.18784030 </v>
    <v>       0.46646779       0.93284178       0.18749259 </v>
    <v>       0.66612004       0.93253433       0.18787217 </v>
    <v>       0.86644099       0.93311705       0.18815799 </v>
    <v>       0.13295004       0.06596959       0.10835228 </v>
    <v>       0.33309020       0.06634623       0.10848462 </v>
    <v>       0.53328854       0.06648198       0.10854709 </v>
    <v>       0.73312537       0.06607241       0.10867444 </v>
    <v>       0.93292348       0.06593037       0.10856427 </v>
    <v>       0.13240606       0.26510888       0.10613289 </v>
    <v>       0.33232298       0.26526081       0.10627317 </v>
    <v>       0.53360259       0.26628050       0.10766859 </v>
    <v>       0.73336461       0.26663081       0.10845084 </v>
    <v>       0.93252150       0.26617725       0.10774180 </v>
    <v>       0.13251351       0.46707356       0.10613216 </v>
    <v>       0.33282929       0.46596680       0.10020783 </v>
    <v>       0.53372882       0.46744610       0.10669019 </v>
    <v>       0.73344051       0.46704386       0.10851630 </v>
    <v>       0.93321257       0.46687915       0.10850343 </v>
    <v>       0.13279655       0.66682985       0.10821749 </v>
    <v>       0.33219050       0.66646392       0.10640446 </v>
    <v>       0.53382039       0.66629072       0.10773219 </v>
    <v>       0.73333807       0.66698432       0.10888494 </v>
    <v>       0.93312231       0.66672983       0.10897654 </v>
    <v>       0.13324983       0.86664026       0.10895324 </v>
    <v>       0.33314204       0.86661524       0.10843516 </v>
    <v>       0.53359508       0.86696482       0.10807777 </v>
    <v>       0.73280019       0.86536174       0.10926809 </v>
    <v>       0.93306368       0.86647357       0.10907281 </v>
    <v>       0.13385805       0.06774645       0.26651275 </v>
    <v>       0.33335631       0.06757863       0.26655795 </v>
    <v>       0.53310499       0.06656442       0.26648232 </v>
    <v>       0.73348945       0.06657003       0.26661407 </v>
    <v>       0.93425104       0.06759398       0.26661981 </v>
    <v>       0.13717003       0.27025673       0.26440608 </v>
    <v>       0.33280471       0.27086133       0.26418597 </v>
    <v>       0.53246162       0.26759429       0.26590078 </v>
    <v>       0.73344337       0.26687305       0.26646609 </v>
    <v>       0.93518689       0.26756397       0.26586365 </v>
    <v>       0.13729069       0.46673673       0.26446132 </v>
    <v>       0.52879635       0.46598279       0.26524419 </v>
    <v>       0.73229437       0.46634995       0.26669062 </v>
    <v>       0.93426338       0.46665277       0.26652885 </v>
    <v>       0.13380597       0.66602650       0.26640627 </v>
    <v>       0.33206533       0.66054192       0.26459457 </v>
    <v>       0.52716177       0.66373650       0.26728275 </v>
    <v>       0.73224036       0.66543164       0.26691157 </v>
    <v>       0.93326884       0.66633928       0.26711448 </v>
    <v>       0.13353931       0.86670619       0.26701883 </v>
    <v>       0.33323550       0.86542311       0.26653819 </v>
    <v>       0.53195405       0.86481486       0.26629205 </v>
    <v>       0.73253178       0.86592846       0.26719492 </v>
    <v>       0.93328533       0.86669782       0.26722420 </v>
    <v>       0.32850569       0.46332893       0.23855036 </v>
    <v>       0.42128753       0.55122915       0.33545010 </v>
   </varray>
  </structure>
  <varray name="primitive_index" >
   <v type="int" >        1 </v>
   <v type="int" >        2 </v>
   <v type="int" >        3 </v>
   <v type="int" >        4 </v>
   <v type="int" >        5 </v>
   <v type="int" >        6 </v>
   <v type="int" >        7 </v>
   <v type="int" >        8 </v>
   <v type="int" >        9 </v>
   <v type="int" >       10 </v>
   <v type="int" >       11 </v>
   <v type="int" >       12 </v>
   <v type="int" >       13 </v>
   <v type="int" >       14 </v>
   <v type="int" >       15 </v>
   <v type="int" >       16 </v>
   <v type="int" >       17 </v>
   <v type="int" >       18 </v>
   <v type="int" >       19 </v>
   <v type="int" >       20 </v>
   <v type="int" >       21 </v>
   <v type="int" >       22 </v>
   <v type="int" >       23 </v>
   <v type="int" >       24 </v>
   <v type="int" >       25 </v>
   <v type="int" >       26 </v>
   <v type="int" >       27 </v>
   <v type="int" >       28 </v>
   <v type="int" >       29 </v>
   <v type="int" >       30 </v>
   <v type="int" >       31 </v>
   <v type="int" >       32 </v>
   <v type="int" >       33 </v>
   <v type="int" >       34 </v>
   <v type="int" >       35 </v>
   <v type="int" >       36 </v>
   <v type="int" >       37 </v>
   <v type="int" >       38 </v>
   <v type="int" >       39 </v>
   <v type="int" >       40 </v>
   <v type="int" >       41 </v>
   <v type="int" >       42 </v>
   <v type="int" >       43 </v>
   <v type="int" >       44 </v>
   <v type="int" >       45 </v>
   <v type="int" >       46 </v>
   <v type="int" >       47 </v>
   <v type="int" >       48 </v>
   <v type="int" >       49 </v>
   <v type="int" >       50 </v>
   <v type="int" >       51 </v>
   <v type="int" >       52 </v>
   <v type="int" >       53 </v>
   <v type="int" >       54 </v>
   <v type="int" >       55 </v>
   <v type="int" >       56 </v>
   <v type="int" >       57 </v>
   <v type="int" >       58 </v>
   <v type="int" >       59 </v>
   <v type="int" >       60 </v>
   <v type="int" >       61 </v>
   <v type="int" >       62 </v>
   <v type="int" >       63 </v>
   <v type="int" >       64 </v>
   <v type="int" >       65 </v>
   <v type="int" >       66 </v>
   <v type="int" >       67 </v>
   <v type="int" >       68 </v>
   <v type="int" >       69 </v>
   <v type="int" >       70 </v>
   <v type="int" >       71 </v>
   <v type="int" >       72 </v>
   <v type="int" >       73 </v>
   <v type="int" >       74 </v>
   <v type="int" >       75 </v>
   <v type="int" >       76 </v>
  </varray>
 </primitive_cell>
 <kpoints>
  <generation param="Monkhorst-Pack">
   <v type="int" name="divisions">       3        3        1 </v>
   <v name="usershift">      0.00000000       0.00000000       0.00000000 </v>
   <v name="genvec1">      0.33333333       0.00000000       0.00000000 </v>
   <v name="genvec2">      0.00000000       0.33333333       0.00000000 </v>
   <v name="genvec3">      0.00000000       0.00000000       1.00000000 </v>
   <v name="shift">      0.00000000       0.00000000       0.00000000 </v>
  </generation>
  <varray name="kpointlist" >
   <v>       0.00000000       0.00000000       0.00000000 </v>
   <v>       0.33333333      -0.00000000       0.00000000 </v>
   <v>       0.00000000       0.33333333       0.00000000 </v>
   <v>      -0.33333333       0.33333333       0.00000000 </v>
   <v>       0.33333333       0.33333333       0.00000000 </v>
  </varray>
  <varray name="weights" >
   <v>       0.11111111 </v>
   <v>       0.22222222 </v>
   <v>       0.22222222 </v>
   <v>       0.22222222 </v>
   <v>       0.22222222 </v>
  </varray>
 </kpoints>
 <parameters>
  <separator name="general" >
   <i type="string" name="SYSTEM">unknown system</i>
   <i type="logical" name="LCOMPAT"> F  </i>
  </separator>
  <separator name="electronic" >
   <i type="string" name="PREC">accura</i>
   <i name="ENMAX">    500.00000000</i>
   <i name="ENAUG">    605.39200000</i>
   <i name="EDIFF">      0.00000100</i>
   <i type="int" name="IALGO">    38</i>
   <i type="int" name="IWAVPR">    11</i>
   <i type="int" name="NBANDS">   440</i>
   <i type="int" name="NBANDSLOW">    -1</i>
   <i type="int" name="NBANDSHIGH">    -1</i>
   <i name="NELECT">    660.00000000</i>
   <i type="int" name="TURBO">     0</i>
   <i type="int" name="IRESTART">     0</i>
   <i type="int" name="NREBOOT">     0</i>
   <i type="int" name="NMIN">     0</i>
   <i name="EREF">      0.00000000</i>
   <separator name="electronic smearing" >
    <i type="int" name="ISMEAR">     1</i>
    <i name="SIGMA">      0.10000000</i>
    <i name="KSPACING">      0.50000000</i>
    <i type="logical" name="KGAMMA"> T  </i>
    <i type="logical" name="KBLOWUP"> T  </i>
   </separator>
   <separator name="electronic projectors" >
    <i type="logical" name="LREAL"> T  </i>
    <v name="ROPT">     -0.00020000     -0.00020000     -0.00020000     -0.00020000</v>
    <i type="int" name="LMAXPAW">  -100</i>
    <i type="int" name="LMAXMIX">     2</i>
    <i type="logical" name="NLSPLINE"> F  </i>
   </separator>
   <separator name="electronic startup" >
    <i type="int" name="ISTART">     0</i>
    <i type="int" name="ICHARG">     2</i>
    <i type="int" name="INIWAV">     1</i>
   </separator>
   <separator name="electronic spin" >
    <i type="int" name="ISPIN">     2</i>
    <i type="logical" name="LNONCOLLINEAR"> F  </i>
    <v name="MAGMOM">      1.00000000      1.00000000      1.00000000      1.00000000      1.00000000      1.00000000      1.00000000      1.00000000      1.00000000      1.00000000      1.00000000      1.00000000      1.00000000      1.00000000      1.00000000      1.00000000      1.00000000      1.00000000      1.00000000      1.00000000
      1.00000000      1.00000000      1.00000000      1.00000000      1.00000000      1.00000000      1.00000000      1.00000000      1.00000000      1.00000000      1.00000000      1.00000000      1.00000000      1.00000000      1.00000000      1.00000000      1.00000000      1.00000000      1.00000000      1.00000000
      1.00000000      1.00000000      1.00000000      1.00000000      1.00000000      1.00000000      1.00000000      1.00000000      1.00000000      1.00000000      1.00000000      1.00000000      1.00000000      1.00000000      1.00000000      1.00000000      1.00000000      1.00000000      1.00000000      1.00000000
      1.00000000      1.00000000      1.00000000      1.00000000      1.00000000      1.00000000      1.00000000      1.00000000      1.00000000      1.00000000      1.00000000      1.00000000      1.00000000      1.00000000      1.00000000      1.00000000</v>
    <i name="NUPDOWN">     -1.00000000</i>
    <i type="logical" name="LSORBIT"> F  </i>
    <v name="SAXIS">      0.00000000      0.00000000      1.00000000</v>
    <i type="logical" name="LSPIRAL"> F  </i>
    <v name="QSPIRAL">      0.00000000      0.00000000      0.00000000</v>
    <i type="logical" name="LZEROZ"> F  </i>
   </separator>
   <separator name="electronic exchange-correlation" >
    <i type="logical" name="LASPH"> F  </i>
    <i type="logical" name="LMETAGGA"> F  </i>
   </separator>
   <separator name="electronic convergence" >
    <i type="int" name="NELM">   100</i>
    <i type="int" name="NELMDL">   -10</i>
    <i type="int" name="NELMIN">     2</i>
    <i name="ENINI">    500.00000000</i>
    <separator name="electronic convergence detail" >
     <i type="logical" name="LDIAG"> T  </i>
     <i type="logical" name="LSUBROT"> F  </i>
     <i name="WEIMIN">      0.00100000</i>
     <i name="EBREAK">      0.00000000</i>
     <i name="DEPER">      0.30000000</i>
     <i type="int" name="NRMM">     4</i>
     <i name="TIME">      0.40000000</i>
    </separator>
   </separator>
   <separator name="electronic mixer" >
    <i name="AMIX">      0.40000000</i>
    <i name="BMIX">      1.00000000</i>
    <i name="AMIN">      0.10000000</i>
    <i name="AMIX_MAG">      1.60000000</i>
    <i name="BMIX_MAG">      1.00000000</i>
    <separator name="electronic mixer details" >
     <i type="int" name="IMIX">     4</i>
     <i type="logical" name="MIXFIRST"> F  </i>
     <i type="int" name="MAXMIX">   -45</i>
     <i name="WC">    100.00000000</i>
     <i type="int" name="INIMIX">     1</i>
     <i type="int" name="MIXPRE">     1</i>
     <i type="int" name="MREMOVE">     5</i>
    </separator>
   </separator>
   <separator name="electronic dipolcorrection" >
    <i type="logical" name="LDIPOL"> T  </i>
    <i type="logical" name="LMONO"> F  </i>
    <i type="int" name="IDIPOL">     3</i>
    <i name="EPSILON">      1.00000000</i>
    <v name="DIPOL">   -100.00000000   -100.00000000   -100.00000000</v>
    <i name="EFIELD">      0.00000000</i>
   </separator>
  </separator>
  <separator name="grids" >
   <i type="int" name="NGX">   120</i>
   <i type="int" name="NGY">   120</i>
   <i type="int" name="NGZ">   150</i>
   <i type="int" name="NGXF">   240</i>
   <i type="int" name="NGYF">   240</i>
   <i type="int" name="NGZF">   300</i>
   <i type="logical" name="ADDGRID"> F  </i>
  </separator>
  <separator name="ionic" >
   <i type="int" name="NSW">   200</i>
   <i type="int" name="IBRION">     1</i>
   <i type="int" name="MDALGO">     0</i>
   <i type="int" name="ISIF">     2</i>
   <i name="PSTRESS">      0.00000000</i>
   <i name="EDIFFG">     -0.02000000</i>
   <i type="int" name="NFREE">    10</i>
   <i name="POTIM">      0.12500000</i>
   <i name="SMASS">     -3.00000000</i>
   <i name="SCALEE">      1.00000000</i>
  </separator>
  <separator name="ionic md" >
   <i name="TEBEG">      0.00010000</i>
   <i name="TEEND">      0.00010000</i>
   <i type="int" name="NBLOCK">     1</i>
   <i type="int" name="KBLOCK">   200</i>
   <i type="int" name="NPACO">   256</i>
   <i name="APACO">     16.00000000</i>
  </separator>
  <separator name="symmetry" >
   <i type="int" name="ISYM">     2</i>
   <i name="SYMPREC">      0.00001000</i>
  </separator>
  <separator name="dos" >
   <i type="int" name="LORBIT">     0</i>
   <v name="RWIGS">     -1.00000000     -1.00000000     -1.00000000     -1.00000000</v>
   <i type="int" name="NEDOS">   301</i>
   <i name="EMIN">     10.00000000</i>
   <i name="EMAX">    -10.00000000</i>
   <i name="EFERMI">      0.00000000</i>
  </separator>
  <separator name="writing" >
   <i type="int" name="NWRITE">     1</i>
   <i type="logical" name="LWAVE"> F  </i>
   <i type="logical" name="LDOWNSAMPLE"> F  </i>
   <i type="logical" name="LCHARG"> F  </i>
   <i type="logical" name="LPARD"> F  </i>
   <i type="logical" name="LVTOT"> F  </i>
   <i type="logical" name="LVHAR"> F  </i>
   <i type="logical" name="LELF"> F  </i>
   <i type="logical" name="LOPTICS"> F  </i>
   <v name="STM">      0.00000000      0.00000000      0.00000000      0.00000000      0.00000000      0.00000000      0.00000000</v>
  </separator>
  <separator name="performance" >
   <i type="int" name="NPAR">     8</i>
   <i type="int" name="NSIM">     4</i>
   <i type="int" name="NBLK">    -1</i>
   <i type="logical" name="LPLANE"> T  </i>
   <i type="logical" name="LSCALAPACK"> F  </i>
   <i type="logical" name="LSCAAWARE"> F  </i>
   <i type="logical" name="LSCALU"> F  </i>
   <i type="logical" name="LASYNC"> F  </i>
   <i type="logical" name="LORBITALREAL"> F  </i>
  </separator>
  <separator name="miscellaneous" >
   <i type="int" name="IDIOT">     3</i>
   <i type="int" name="PHON_NSTRUCT">    -1</i>
   <i type="logical" name="LMUSIC"> F  </i>
   <v name="POMASS">     95.94000000     32.06600000     16.00000000    195.08000000</v>
   <v name="DARWINR">      0.00000000      0.00000000      0.00000000      0.00000000</v>
   <v name="DARWINV">      1.00000000      1.00000000      1.00000000      1.00000000</v>
   <i type="logical" name="LCORR"> T  </i>
  </separator>
  <i type="logical" name="GGA_COMPAT"> T  </i>
  <i type="logical" name="LBERRY"> F  </i>
  <i type="int" name="ICORELEVEL">     0</i>
  <i type="logical" name="LDAU"> F  </i>
  <i type="int" name="I_CONSTRAINED_M">     0</i>
  <separator name="electronic exchange-correlation" >
   <i type="string" name="GGA">MK</i>
   <i type="int" name="VOSKOWN">     1</i>
   <i type="logical" name="LHFCALC"> F  </i>
   <i type="string" name="PRECFOCK"></i>
   <i type="logical" name="LSYMGRAD"> F  </i>
   <i type="logical" name="LHFONE"> F  </i>
   <i type="logical" name="LRHFCALC"> F  </i>
   <i type="logical" name="LTHOMAS"> F  </i>
   <i type="logical" name="LMODELHF"> F  </i>
   <i type="logical" name="LFOCKACE"> F  </i>
   <i name="ENCUT4O">     -1.00000000</i>
   <i type="int" name="EXXOEP">     0</i>
   <i type="int" name="FOURORBIT">     0</i>
   <i name="AEXX">      0.00000000</i>
   <i name="HFALPHA">      0.00000000</i>
   <i name="MCALPHA">      0.00000000</i>
   <i name="ALDAX">      1.00000000</i>
   <i name="AGGAX">      1.00000000</i>
   <i name="ALDAC">      1.00000000</i>
   <i name="AGGAC">      0.00000000</i>
   <i type="int" name="NKREDX">     1</i>
   <i type="int" name="NKREDY">     1</i>
   <i type="int" name="NKREDZ">     1</i>
   <i type="logical" name="SHIFTRED"> F  </i>
   <i type="logical" name="ODDONLY"> F  </i>
   <i type="logical" name="EVENONLY"> F  </i>
   <i type="int" name="LMAXFOCK">     0</i>
   <i type="int" name="NMAXFOCKAE">     0</i>
   <i type="logical" name="LFOCKAEDFT"> F  </i>
   <i name="HFSCREEN">      0.00000000</i>
   <i name="HFSCREENC">      0.00000000</i>
   <i type="int" name="NBANDSGWLOW">     0</i>
  </separator>
  <separator name="vdW DFT" >
   <i type="logical" name="LUSE_VDW"> T  </i>
   <i name="Zab_VDW">     -0.84910000</i>
   <i name="PARAM1">      0.12340000</i>
   <i name="PARAM2">      1.00000000</i>
   <i name="PARAM3">      0.00000000</i>
  </separator>
  <separator name="model GW" >
   <i type="int" name="MODEL_GW">     0</i>
   <i name="MODEL_EPS0">     33.38399737</i>
   <i name="MODEL_ALPHA">      1.00000000</i>
  </separator>
  <separator name="linear response parameters" >
   <i type="logical" name="LEPSILON"> F  </i>
   <i type="logical" name="LRPA"> F  </i>
   <i type="logical" name="LNABLA"> F  </i>
   <i type="logical" name="LVEL"> F  </i>
   <i type="int" name="KINTER">     0</i>
   <i name="CSHIFT">      0.10000000</i>
   <i name="OMEGAMAX">     -1.00000000</i>
   <i name="DEG_THRESHOLD">      0.00200000</i>
   <i name="RTIME">     -0.10000000</i>
   <i name="WPLASMAI">      0.00000000</i>
   <v name="DFIELD">      0.00000000      0.00000000      0.00000000</v>
   <v name="WPLASMA">      0.00000000      0.00000000      0.00000000      0.00000000      0.00000000      0.00000000      0.00000000      0.00000000      0.00000000</v>
  </separator>
  <separator name="orbital magnetization" >
   <i type="logical" name="NUCIND"> F  </i>
   <v name="MAGPOS">      0.00000000      0.00000000      0.00000000</v>
   <i type="logical" name="LNICSALL"> T  </i>
   <i type="logical" name="ORBITALMAG"> F  </i>
   <i type="logical" name="LMAGBLOCH"> F  </i>
   <i type="logical" name="LCHIMAG"> F  </i>
   <i type="logical" name="LGAUGE"> T  </i>
   <i type="int" name="MAGATOM">     0</i>
   <v name="MAGDIPOL">      0.00000000      0.00000000      0.00000000</v>
   <v name="AVECCONST">      0.00000000      0.00000000      0.00000000</v>
  </separator>
  <separator name="response functions" >
   <i type="logical" name="LFINITE_TEMPERATURE"> F  </i>
   <i type="logical" name="LADDER"> F  </i>
   <i type="logical" name="LRPAFORCE"> F  </i>
   <i type="logical" name="LFXC"> F  </i>
   <i type="logical" name="LHARTREE"> T  </i>
   <i type="int" name="IBSE">     0</i>
   <v type="int" name="KPOINT">    -1     0     0     0</v>
   <i type="logical" name="LTCTC"> F  </i>
   <i type="logical" name="LTCTE"> F  </i>
   <i type="logical" name="LTETE"> F  </i>
   <i type="logical" name="LTRIPLET"> F  </i>
   <i type="logical" name="LFXCEPS"> F  </i>
   <i type="logical" name="LFXHEG"> F  </i>
   <i type="int" name="NATURALO">     2</i>
   <i type="logical" name="LHOLEGF"> F  </i>
   <i type="logical" name="L2ORDER"> F  </i>
   <i type="logical" name="LDMP1"> F  </i>
   <i type="logical" name="LMP2LT"> F  </i>
   <i type="logical" name="LSMP2LT"> F  </i>
   <i type="logical" name="LGWLF"> F  </i>
   <i name="ENCUTGW">     -2.00000000</i>
   <i name="ENCUTGWSOFT">     -2.00000000</i>
   <i name="ENCUTLF">     -1.00000000</i>
   <i type="logical" name="LESF_SPLINES"> F  </i>
   <i type="int" name="LMAXMP2">    -1</i>
   <i name="SCISSOR">      0.00000000</i>
   <i type="int" name="NOMEGA">     0</i>
   <i type="int" name="NOMEGAR">     0</i>
   <i type="int" name="NBANDSGW">    -1</i>
   <i type="int" name="NBANDSO">    -1</i>
   <i type="int" name="NBANDSV">    -1</i>
   <i type="int" name="NELM">   100</i>
   <i type="int" name="NELMHF">     1</i>
   <i type="int" name="DIM">     3</i>
   <i type="int" name="IESPILON">     4</i>
   <i type="int" name="ANTIRES">     0</i>
   <i name="OMEGAMAX">    -30.00000000</i>
   <i name="OMEGAMIN">    -30.00000000</i>
   <i name="OMEGATL">   -200.00000000</i>
   <i type="int" name="OMEGAGRID">     0</i>
   <i name="CSHIFT">     -0.10000000</i>
   <i type="logical" name="LSELFENERGY"> F  </i>
   <i type="logical" name="LSPECTRAL"> F  </i>
   <i type="logical" name="LSPECTRALGW"> F  </i>
   <i type="logical" name="LSINGLES"> F  </i>
   <i type="logical" name="LFERMIGW"> F  </i>
   <i type="logical" name="ODDONLYGW"> F  </i>
   <i type="logical" name="EVENONLYGW"> F  </i>
   <i type="int" name="NKREDLFX">     1</i>
   <i type="int" name="NKREDLFY">     1</i>
   <i type="int" name="NKREDLFZ">     1</i>
   <i type="int" name="MAXMEM">  2800</i>
   <i type="int" name="TELESCOPE">     0</i>
   <i type="int" name="NTAUPAR">    -1</i>
   <i type="int" name="NOMEGAPAR">    -1</i>
   <i name="DAMP_NEWTON">      0.80000001</i>
   <i name="LAMBDA">      1.00000000</i>
  </separator>
  <separator name="External order field" >
   <i name="OFIELD_KAPPA">      0.00000000</i>
   <v name="OFIELD_K">      0.00000000      0.00000000      0.00000000</v>
   <i name="OFIELD_Q6_NEAR">      0.00000000</i>
   <i name="OFIELD_Q6_FAR">      0.00000000</i>
   <i name="OFIELD_A">      0.00000000</i>
  </separator>
 </parameters>
 <atominfo>
  <atoms>      76 </atoms>
  <types>       4 </types>
  <array name="atoms" >
   <dimension dim="1">ion</dimension>
   <field type="string">element</field>
   <field type="int">atomtype</field>
   <set>
    <rc><c>Mo</c><c>   1</c></rc>
    <rc><c>Mo</c><c>   1</c></rc>
    <rc><c>Mo</c><c>   1</c></rc>
    <rc><c>Mo</c><c>   1</c></rc>
    <rc><c>Mo</c><c>   1</c></rc>
    <rc><c>Mo</c><c>   1</c></rc>
    <rc><c>Mo</c><c>   1</c></rc>
    <rc><c>Mo</c><c>   1</c></rc>
    <rc><c>Mo</c><c>   1</c></rc>
    <rc><c>Mo</c><c>   1</c></rc>
    <rc><c>Mo</c><c>   1</c></rc>
    <rc><c>Mo</c><c>   1</c></rc>
    <rc><c>Mo</c><c>   1</c></rc>
    <rc><c>Mo</c><c>   1</c></rc>
    <rc><c>Mo</c><c>   1</c></rc>
    <rc><c>Mo</c><c>   1</c></rc>
    <rc><c>Mo</c><c>   1</c></rc>
    <rc><c>Mo</c><c>   1</c></rc>
    <rc><c>Mo</c><c>   1</c></rc>
    <rc><c>Mo</c><c>   1</c></rc>
    <rc><c>Mo</c><c>   1</c></rc>
    <rc><c>Mo</c><c>   1</c></rc>
    <rc><c>Mo</c><c>   1</c></rc>
    <rc><c>Mo</c><c>   1</c></rc>
    <rc><c>Mo</c><c>   1</c></rc>
    <rc><c>S </c><c>   2</c></rc>
    <rc><c>S </c><c>   2</c></rc>
    <rc><c>S </c><c>   2</c></rc>
    <rc><c>S </c><c>   2</c></rc>
    <rc><c>S </c><c>   2</c></rc>
    <rc><c>S </c><c>   2</c></rc>
    <rc><c>S </c><c>   2</c></rc>
    <rc><c>S </c><c>   2</c></rc>
    <rc><c>S </c><c>   2</c></rc>
    <rc><c>S </c><c>   2</c></rc>
    <rc><c>S </c><c>   2</c></rc>
    <rc><c>S </c><c>   2</c></rc>
    <rc><c>S </c><c>   2</c></rc>
    <rc><c>S </c><c>   2</c></rc>
    <rc><c>S </c><c>   2</c></rc>
    <rc><c>S </c><c>   2</c></rc>
    <rc><c>S </c><c>   2</c></rc>
    <rc><c>S </c><c>   2</c></rc>
    <rc><c>S </c><c>   2</c></rc>
    <rc><c>S </c><c>   2</c></rc>
    <rc><c>S </c><c>   2</c></rc>
    <rc><c>S </c><c>   2</c></rc>
    <rc><c>S </c><c>   2</c></rc>
    <rc><c>S </c><c>   2</c></rc>
    <rc><c>S </c><c>   2</c></rc>
    <rc><c>S </c><c>   2</c></rc>
    <rc><c>S </c><c>   2</c></rc>
    <rc><c>S </c><c>   2</c></rc>
    <rc><c>S </c><c>   2</c></rc>
    <rc><c>S </c><c>   2</c></rc>
    <rc><c>S </c><c>   2</c></rc>
    <rc><c>S </c><c>   2</c></rc>
    <rc><c>S </c><c>   2</c></rc>
    <rc><c>S </c><c>   2</c></rc>
    <rc><c>S </c><c>   2</c></rc>
    <rc><c>S </c><c>   2</c></rc>
    <rc><c>S </c><c>   2</c></rc>
    <rc><c>S </c><c>   2</c></rc>
    <rc><c>S </c><c>   2</c></rc>
    <rc><c>S </c><c>   2</c></rc>
    <rc><c>S </c><c>   2</c></rc>
    <rc><c>S </c><c>   2</c></rc>
    <rc><c>S </c><c>   2</c></rc>
    <rc><c>S </c><c>   2</c></rc>
    <rc><c>S </c><c>   2</c></rc>
    <rc><c>S </c><c>   2</c></rc>
    <rc><c>S </c><c>   2</c></rc>
    <rc><c>S </c><c>   2</c></rc>
    <rc><c>S </c><c>   2</c></rc>
    <rc><c>O </c><c>   3</c></rc>
    <rc><c>Pt</c><c>   4</c></rc>
   </set>
  </array>
  <array name="atomtypes" >
   <dimension dim="1">type</dimension>
   <field type="int">atomspertype</field>
   <field type="string">element</field>
   <field>mass</field>
   <field>valence</field>
   <field type="string">pseudopotential</field>
   <set>
    <rc><c>  25</c><c>Mo</c><c>     95.94000000</c><c>     14.00000000</c><c>  PAW_PBE Mo_sv 02Feb2006               </c></rc>
    <rc><c>  49</c><c>S </c><c>     32.06600000</c><c>      6.00000000</c><c>  PAW_PBE S 06Sep2000                   </c></rc>
    <rc><c>   1</c><c>O </c><c>     16.00000000</c><c>      6.00000000</c><c>  PAW_PBE O 08Apr2002                   </c></rc>
    <rc><c>   1</c><c>Pt</c><c>    195.08000000</c><c>     10.00000000</c><c>  PAW_PBE Pt 04Feb2005                  </c></rc>
   </set>
  </array>
 </atominfo>
 <structure name="initialpos" >
  <crystal>
   <varray name="basis" >
    <v>      15.62500000       0.00000000       0.00000000 </v>
    <v>      -7.81250000      13.53164693       0.00000000 </v>
    <v>       0.00000000       0.00000000      20.00000000 </v>
   </varray>
   <i name="volume">   4228.63966688 </i>
   <varray name="rec_basis" >
    <v>       0.06400000       0.03695042       0.00000000 </v>
    <v>       0.00000000       0.07390083       0.00000000 </v>
    <v>       0.00000000       0.00000000       0.05000000 </v>
   </varray>
  </crystal>
  <varray name="positions" >
   <v>       0.06710923       0.13385404       0.18718297 </v>
   <v>       0.26666057       0.13395760       0.18719614 </v>
   <v>       0.46651470       0.13354027       0.18741868 </v>
   <v>       0.66674121       0.13333575       0.18758748 </v>
   <v>       0.86699423       0.13347461       0.18745139 </v>
   <v>       0.06762952       0.33386816       0.18571707 </v>
   <v>       0.26699987       0.33535881       0.18281697 </v>
   <v>       0.46628686       0.33395208       0.18578535 </v>
   <v>       0.66654206       0.33351494       0.18735219 </v>
   <v>       0.86701991       0.33347904       0.18741535 </v>
   <v>       0.06726895       0.53321345       0.18707450 </v>
   <v>       0.26687228       0.53059334       0.18283664 </v>
   <v>       0.46222081       0.53065930       0.18384813 </v>
   <v>       0.66587967       0.53293153       0.18714333 </v>
   <v>       0.86662821       0.53332565       0.18786499 </v>
   <v>       0.06660075       0.73319999       0.18788700 </v>
   <v>       0.26644437       0.73266114       0.18689484 </v>
   <v>       0.46575551       0.73143575       0.18697971 </v>
   <v>       0.66536398       0.73232103       0.18798983 </v>
   <v>       0.86652600       0.73324900       0.18799734 </v>
   <v>       0.06668907       0.93348047       0.18799157 </v>
   <v>       0.26674834       0.93335471       0.18784639 </v>
   <v>       0.46651140       0.93274220       0.18755762 </v>
   <v>       0.66633781       0.93268131       0.18776141 </v>
   <v>       0.86641723       0.93310288       0.18808155 </v>
   <v>       0.13309854       0.06619776       0.10843905 </v>
   <v>       0.33309685       0.06643734       0.10854640 </v>
   <v>       0.53330343       0.06645548       0.10860321 </v>
   <v>       0.73321457       0.06628889       0.10862438 </v>
   <v>       0.93306825       0.06610676       0.10860782 </v>
   <v>       0.13250473       0.26517575       0.10628155 </v>
   <v>       0.33243941       0.26531395       0.10640568 </v>
   <v>       0.53354997       0.26643418       0.10781365 </v>
   <v>       0.73340026       0.26669077       0.10847841 </v>
   <v>       0.93276882       0.26636343       0.10784902 </v>
   <v>       0.13262517       0.46724349       0.10613814 </v>
   <v>       0.33301176       0.46617599       0.10099471 </v>
   <v>       0.53398444       0.46764055       0.10679000 </v>
   <v>       0.73364316       0.46702256       0.10841278 </v>
   <v>       0.93324748       0.46687647       0.10850813 </v>
   <v>       0.13291862       0.66684477       0.10822874 </v>
   <v>       0.33284216       0.66698035       0.10669092 </v>
   <v>       0.53378654       0.66618693       0.10789164 </v>
   <v>       0.73349774       0.66713884       0.10865067 </v>
   <v>       0.93324879       0.66673574       0.10892150 </v>
   <v>       0.13326135       0.86666506       0.10896472 </v>
   <v>       0.33328928       0.86678808       0.10843321 </v>
   <v>       0.53342387       0.86640093       0.10835265 </v>
   <v>       0.73306955       0.86582516       0.10899034 </v>
   <v>       0.93322516       0.86660344       0.10900959 </v>
   <v>       0.13384388       0.06771837       0.26659833 </v>
   <v>       0.33338499       0.06752448       0.26661182 </v>
   <v>       0.53313688       0.06655528       0.26648734 </v>
   <v>       0.73350433       0.06660358       0.26657314 </v>
   <v>       0.93406484       0.06744038       0.26665062 </v>
   <v>       0.13695289       0.27000741       0.26464601 </v>
   <v>       0.33286036       0.27072667       0.26440722 </v>
   <v>       0.53252873       0.26765026       0.26596153 </v>
   <v>       0.73347329       0.26693848       0.26650263 </v>
   <v>       0.93522535       0.26763083       0.26594774 </v>
   <v>       0.13712398       0.46701434       0.26464239 </v>
   <v>       0.52970836       0.46627275       0.26535961 </v>
   <v>       0.73240740       0.46653951       0.26665436 </v>
   <v>       0.93421500       0.46669726       0.26657577 </v>
   <v>       0.13381860       0.66608906       0.26643436 </v>
   <v>       0.33178007       0.66101513       0.26476370 </v>
   <v>       0.52597420       0.66117345       0.26901980 </v>
   <v>       0.73215498       0.66588479       0.26660629 </v>
   <v>       0.93323127       0.66645064       0.26710425 </v>
   <v>       0.13351412       0.86670526       0.26701838 </v>
   <v>       0.33327686       0.86554296       0.26656339 </v>
   <v>       0.53236249       0.86490373       0.26640850 </v>
   <v>       0.73213092       0.86560303       0.26707388 </v>
   <v>       0.93322029       0.86664268       0.26714473 </v>
   <v>       0.32614244       0.46197323       0.23910069 </v>
   <v>       0.40403053       0.53383089       0.32898477 </v>
  </varray>
 </structure>
 <calculation>
  <scstep>
   <time name="dav">  201.45  201.76</time>
   <time name="total">  214.89  215.43</time>
   <dipole>
    <v name="dipole">      0.00000000       0.00000000       0.00005810 </v>
    <i name="Tr[quadrupol]"> -27688.03568766 </i>
    <i name="Echarged">      0.00000000 </i>
    <i name="Edipol_quadrupol">      0.00000000 </i>
    <i name="Eion">      0.00000000 </i>
   </dipole>
   <energy>
    <i name="alphaZ">    724.48176035 </i>
    <i name="ewald"> 146048.89437316 </i>
    <i name="hartreedc">-199655.19791179 </i>
    <i name="XCdc">   2313.02805277 </i>
    <i name="pawpsdc">  49179.51700218 </i>
    <i name="pawaedc"> -48500.76418973 </i>
    <i name="eentropy">     -0.01082919 </i>
    <i name="bandstr">  -5936.99648850 </i>
    <i name="atom">  61433.25142123 </i>
    <i name="e_fr_energy">   5606.20319049 </i>
    <i name="e_wo_entrp">   5606.21401968 </i>
    <i name="e_0_energy">   5606.20680022 </i>
   </energy>
  </scstep>
  <scstep>
   <time name="dav">  220.48  220.73</time>
   <time name="total">  220.49  220.74</time>
   <dipole>
    <v name="dipole">      0.00000000       0.00000000       0.00005810 </v>
    <i name="Tr[quadrupol]"> -27688.03568766 </i>
    <i name="Echarged">      0.00000000 </i>
    <i name="Edipol_quadrupol">      0.00000000 </i>
    <i name="Eion">      0.00000000 </i>
   </dipole>
   <energy>
    <i name="e_fr_energy">    150.97943255 </i>
    <i name="e_wo_entrp">    150.97585914 </i>
    <i name="e_0_energy">    150.97824141 </i>
   </energy>
  </scstep>
  <scstep>
   <time name="dav">  198.64  198.86</time>
   <time name="total">  198.65  198.87</time>
   <dipole>
    <v name="dipole">      0.00000000       0.00000000       0.00005810 </v>
    <i name="Tr[quadrupol]"> -27688.03568766 </i>
    <i name="Echarged">      0.00000000 </i>
    <i name="Edipol_quadrupol">      0.00000000 </i>
    <i name="Eion">      0.00000000 </i>
   </dipole>
   <energy>
    <i name="e_fr_energy">   -405.80548699 </i>
    <i name="e_wo_entrp">   -405.80994887 </i>
    <i name="e_0_energy">   -405.80697428 </i>
   </energy>
  </scstep>
  <scstep>
   <time name="dav">  205.05  205.29</time>
   <time name="total">  205.06  205.30</time>
   <dipole>
    <v name="dipole">      0.00000000       0.00000000       0.00005810 </v>
    <i name="Tr[quadrupol]"> -27688.03568766 </i>
    <i name="Echarged">      0.00000000 </i>
    <i name="Edipol_quadrupol">      0.00000000 </i>
    <i name="Eion">      0.00000000 </i>
   </dipole>
   <energy>
    <i name="e_fr_energy">   -424.20787907 </i>
    <i name="e_wo_entrp">   -424.21180796 </i>
    <i name="e_0_energy">   -424.20918870 </i>
   </energy>
  </scstep>
  <scstep>
   <time name="dav">  209.93  210.20</time>
   <time name="total">  209.94  210.22</time>
   <dipole>
    <v name="dipole">      0.00000000       0.00000000       0.00005810 </v>
    <i name="Tr[quadrupol]"> -27688.03568766 </i>
    <i name="Echarged">      0.00000000 </i>
    <i name="Edipol_quadrupol">      0.00000000 </i>
    <i name="Eion">      0.00000000 </i>
   </dipole>
   <energy>
    <i name="e_fr_energy">   -424.75105555 </i>
    <i name="e_wo_entrp">   -424.75497282 </i>
    <i name="e_0_energy">   -424.75236131 </i>
   </energy>
  </scstep>
  <scstep>
   <time name="dav">  206.58  206.83</time>
   <time name="total">  206.60  206.84</time>
   <dipole>
    <v name="dipole">      0.00000000       0.00000000       0.00005810 </v>
    <i name="Tr[quadrupol]"> -27688.03568766 </i>
    <i name="Echarged">      0.00000000 </i>
    <i name="Edipol_quadrupol">      0.00000000 </i>
    <i name="Eion">      0.00000000 </i>
   </dipole>
   <energy>
    <i name="e_fr_energy">   -424.77527956 </i>
    <i name="e_wo_entrp">   -424.77919672 </i>
    <i name="e_0_energy">   -424.77658528 </i>
   </energy>
  </scstep>
  <scstep>
   <time name="dav">  205.47  205.70</time>
   <time name="total">  205.48  205.72</time>
   <dipole>
    <v name="dipole">      0.00000000       0.00000000       0.00005810 </v>
    <i name="Tr[quadrupol]"> -27688.03568766 </i>
    <i name="Echarged">      0.00000000 </i>
    <i name="Edipol_quadrupol">      0.00000000 </i>
    <i name="Eion">      0.00000000 </i>
   </dipole>
   <energy>
    <i name="e_fr_energy">   -424.77646992 </i>
    <i name="e_wo_entrp">   -424.78038708 </i>
    <i name="e_0_energy">   -424.77777564 </i>
   </energy>
  </scstep>
  <scstep>
   <time name="dav">  196.23  196.46</time>
   <time name="total">  196.24  196.67</time>
   <dipole>
    <v name="dipole">      0.00000000       0.00000000       0.00005810 </v>
    <i name="Tr[quadrupol]"> -27688.03568766 </i>
    <i name="Echarged">      0.00000000 </i>
    <i name="Edipol_quadrupol">      0.00000000 </i>
    <i name="Eion">      0.00000000 </i>
   </dipole>
   <energy>
    <i name="e_fr_energy">   -424.77653263 </i>
    <i name="e_wo_entrp">   -424.78044979 </i>
    <i name="e_0_energy">   -424.77783835 </i>
   </energy>
  </scstep>
  <scstep>
   <time name="dav">  177.82  178.03</time>
   <time name="total">  177.83  178.05</time>
   <dipole>
    <v name="dipole">      0.00000000       0.00000000       0.00005810 </v>
    <i name="Tr[quadrupol]"> -27688.03568766 </i>
    <i name="Echarged">      0.00000000 </i>
    <i name="Edipol_quadrupol">      0.00000000 </i>
    <i name="Eion">      0.00000000 </i>
   </dipole>
   <energy>
    <i name="e_fr_energy">   -424.77653590 </i>
    <i name="e_wo_entrp">   -424.78045306 </i>
    <i name="e_0_energy">   -424.77784162 </i>
   </energy>
  </scstep>
  <scstep>
   <time name="dav">  155.22  155.40</time>
   <time name="total">  168.10  168.31</time>
   <dipole>
    <v name="dipole">      0.00000000       0.00000000       0.00005810 </v>
    <i name="Tr[quadrupol]"> -27688.03568766 </i>
    <i name="Echarged">      0.00000000 </i>
    <i name="Edipol_quadrupol">      0.00000000 </i>
    <i name="Eion">      0.00000000 </i>
   </dipole>
   <energy>
    <i name="e_fr_energy">   -424.77653608 </i>
    <i name="e_wo_entrp">   -424.78045324 </i>
    <i name="e_0_energy">   -424.77784180 </i>
   </energy>
  </scstep>
  <scstep>
   <time name="dav">  183.55  183.79</time>
   <time name="total">  209.10  209.41</time>
   <dipole>
    <v name="dipole">      0.00000000       0.00000000       0.08379697 </v>
    <i name="Tr[quadrupol]"> -27686.85219619 </i>
    <i name="Echarged">      0.00000000 </i>
    <i name="Edipol_quadrupol">      0.00000000 </i>
    <i name="Eion">      0.00000000 </i>
   </dipole>
   <energy>
    <i name="e_fr_energy">   -391.54190821 </i>
    <i name="e_wo_entrp">   -391.51599439 </i>
    <i name="e_0_energy">   -391.53327027 </i>
   </energy>
  </scstep>
  <scstep>
   <time name="dav">  185.95  186.16</time>
   <time name="total">  210.42  210.71</time>
   <dipole>
    <v name="dipole">      0.00000000       0.00000000      -0.80863076 </v>
    <i name="Tr[quadrupol]"> -27695.02197112 </i>
    <i name="Echarged">      0.00000000 </i>
    <i name="Edipol_quadrupol">      0.00000000 </i>
    <i name="Eion">      0.00000000 </i>
   </dipole>
   <energy>
    <i name="e_fr_energy">   -396.86860549 </i>
    <i name="e_wo_entrp">   -396.84887299 </i>
    <i name="e_0_energy">   -396.86202799 </i>
   </energy>
  </scstep>
  <scstep>
   <time name="dav">  181.89  182.11</time>
   <time name="total">  207.18  207.42</time>
   <dipole>
    <v name="dipole">      0.00000000       0.00000000      -0.10913470 </v>
    <i name="Tr[quadrupol]"> -27694.77193041 </i>
    <i name="Echarged">      0.00000000 </i>
    <i name="Edipol_quadrupol">      0.00000000 </i>
    <i name="Eion">      0.00000000 </i>
   </dipole>
   <energy>
    <i name="e_fr_energy">   -392.51797390 </i>
    <i name="e_wo_entrp">   -392.52253971 </i>
    <i name="e_0_energy">   -392.51949584 </i>
   </energy>
  </scstep>
  <scstep>
   <time name="dav">  187.53  187.77</time>
   <time name="total">  212.77  213.12</time>
   <dipole>
    <v name="dipole">      0.00000000       0.00000000      -0.29100052 </v>
    <i name="Tr[quadrupol]"> -27695.80434001 </i>
    <i name="Echarged">      0.00000000 </i>
    <i name="Edipol_quadrupol">      0.00000000 </i>
    <i name="Eion">      0.00000000 </i>
   </dipole>
   <energy>
    <i name="e_fr_energy">   -395.45599116 </i>
    <i name="e_wo_entrp">   -395.46331273 </i>
    <i name="e_0_energy">   -395.45843168 </i>
   </energy>
  </scstep>
  <scstep>
   <time name="dav">  180.45  180.66</time>
   <time name="total">  205.27  205.54</time>
   <dipole>
    <v name="dipole">      0.00000000       0.00000000      -0.30092885 </v>
    <i name="Tr[quadrupol]"> -27696.75789714 </i>
    <i name="Echarged">      0.00000000 </i>
    <i name="Edipol_quadrupol">      0.00000000 </i>
    <i name="Eion">      0.00000000 </i>
   </dipole>
   <energy>
    <i name="e_fr_energy">   -397.64126071 </i>
    <i name="e_wo_entrp">   -397.64867221 </i>
    <i name="e_0_energy">   -397.64373121 </i>
   </energy>
  </scstep>
  <scstep>
   <time name="dav">  178.51  178.72</time>
   <time name="total">  203.61  203.86</time>
   <dipole>
    <v name="dipole">      0.00000000       0.00000000      -0.24122771 </v>
    <i name="Tr[quadrupol]"> -27697.88274270 </i>
    <i name="Echarged">      0.00000000 </i>
    <i name="Edipol_quadrupol">      0.00000000 </i>
    <i name="Eion">      0.00000000 </i>
   </dipole>
   <energy>
    <i name="e_fr_energy">   -399.94271022 </i>
    <i name="e_wo_entrp">   -399.94874345 </i>
    <i name="e_0_energy">   -399.94472130 </i>
   </energy>
  </scstep>
  <scstep>
   <time name="dav">  184.06  184.28</time>
   <time name="total">  209.22  209.47</time>
   <dipole>
    <v name="dipole">      0.00000000       0.00000000      -0.20095752 </v>
    <i name="Tr[quadrupol]"> -27699.24884934 </i>
    <i name="Echarged">      0.00000000 </i>
    <i name="Edipol_quadrupol">      0.00000000 </i>
    <i name="Eion">      0.00000000 </i>
   </dipole>
   <energy>
    <i name="e_fr_energy">   -402.08834493 </i>
    <i name="e_wo_entrp">   -402.09868079 </i>
    <i name="e_0_energy">   -402.09179022 </i>
   </energy>
  </scstep>
  <scstep>
   <time name="dav">  188.65  188.89</time>
   <time name="total">  213.47  213.97</time>
   <dipole>
    <v name="dipole">      0.00000000       0.00000000      -0.20416418 </v>
    <i name="Tr[quadrupol]"> -27699.85073513 </i>
    <i name="Echarged">      0.00000000 </i>
    <i name="Edipol_quadrupol">      0.00000000 </i>
    <i name="Eion">      0.00000000 </i>
   </dipole>
   <energy>
    <i name="e_fr_energy">   -402.64393762 </i>
    <i name="e_wo_entrp">   -402.65230863 </i>
    <i name="e_0_energy">   -402.64672795 </i>
   </energy>
  </scstep>
  <scstep>
   <time name="dav">  185.36  185.58</time>
   <time name="total">  210.19  210.44</time>
   <dipole>
    <v name="dipole">      0.00000000       0.00000000      -0.16199212 </v>
    <i name="Tr[quadrupol]"> -27700.23890223 </i>
    <i name="Echarged">      0.00000000 </i>
    <i name="Edipol_quadrupol">      0.00000000 </i>
    <i name="Eion">      0.00000000 </i>
   </dipole>
   <energy>
    <i name="e_fr_energy">   -402.81576749 </i>
    <i name="e_wo_entrp">   -402.82953322 </i>
    <i name="e_0_energy">   -402.82035607 </i>
   </energy>
  </scstep>
  <scstep>
   <time name="dav">  183.26  183.53</time>
   <time name="total">  208.03  208.35</time>
   <dipole>
    <v name="dipole">      0.00000000       0.00000000      -0.11296798 </v>
    <i name="Tr[quadrupol]"> -27700.41913246 </i>
    <i name="Echarged">      0.00000000 </i>
    <i name="Edipol_quadrupol">      0.00000000 </i>
    <i name="Eion">      0.00000000 </i>
   </dipole>
   <energy>
    <i name="e_fr_energy">   -402.83668634 </i>
    <i name="e_wo_entrp">   -402.85018588 </i>
    <i name="e_0_energy">   -402.84118618 </i>
   </energy>
  </scstep>
  <scstep>
   <time name="dav">  182.25  182.46</time>
   <time name="total">  207.08  207.32</time>
   <dipole>
    <v name="dipole">      0.00000000       0.00000000      -0.09806104 </v>
    <i name="Tr[quadrupol]"> -27700.45694062 </i>
    <i name="Echarged">      0.00000000 </i>
    <i name="Edipol_quadrupol">      0.00000000 </i>
    <i name="Eion">      0.00000000 </i>
   </dipole>
   <energy>
    <i name="e_fr_energy">   -402.83364948 </i>
    <i name="e_wo_entrp">   -402.84645980 </i>
    <i name="e_0_energy">   -402.83791959 </i>
   </energy>
  </scstep>
  <scstep>
   <time name="dav">  178.22  178.43</time>
   <time name="total">  202.99  203.25</time>
   <dipole>
    <v name="dipole">      0.00000000       0.00000000      -0.08809061 </v>
    <i name="Tr[quadrupol]"> -27700.47483081 </i>
    <i name="Echarged">      0.00000000 </i>
    <i name="Edipol_quadrupol">      0.00000000 </i>
    <i name="Eion">      0.00000000 </i>
   </dipole>
   <energy>
    <i name="e_fr_energy">   -402.83162553 </i>
    <i name="e_wo_entrp">   -402.84429734 </i>
    <i name="e_0_energy">   -402.83584947 </i>
   </energy>
  </scstep>
  <scstep>
   <time name="dav">  181.08  181.30</time>
   <time name="total">  205.83  206.08</time>
   <dipole>
    <v name="dipole">      0.00000000       0.00000000      -0.07769574 </v>
    <i name="Tr[quadrupol]"> -27700.49493635 </i>
    <i name="Echarged">      0.00000000 </i>
    <i name="Edipol_quadrupol">      0.00000000 </i>
    <i name="Eion">      0.00000000 </i>
   </dipole>
   <energy>
    <i name="e_fr_energy">   -402.83061567 </i>
    <i name="e_wo_entrp">   -402.84354105 </i>
    <i name="e_0_energy">   -402.83492413 </i>
   </energy>
  </scstep>
  <scstep>
   <time name="dav">  178.01  178.22</time>
   <time name="total">  202.90  203.15</time>
   <dipole>
    <v name="dipole">      0.00000000       0.00000000      -0.06972036 </v>
    <i name="Tr[quadrupol]"> -27700.52406221 </i>
    <i name="Echarged">      0.00000000 </i>
    <i name="Edipol_quadrupol">      0.00000000 </i>
    <i name="Eion">      0.00000000 </i>
   </dipole>
   <energy>
    <i name="e_fr_energy">   -402.83004368 </i>
    <i name="e_wo_entrp">   -402.84288892 </i>
    <i name="e_0_energy">   -402.83432543 </i>
   </energy>
  </scstep>
  <scstep>
   <time name="dav">  187.53  187.76</time>
   <time name="total">  212.28  212.55</time>
   <dipole>
    <v name="dipole">      0.00000000       0.00000000      -0.06483610 </v>
    <i name="Tr[quadrupol]"> -27700.55864796 </i>
    <i name="Echarged">      0.00000000 </i>
    <i name="Edipol_quadrupol">      0.00000000 </i>
    <i name="Eion">      0.00000000 </i>
   </dipole>
   <energy>
    <i name="e_fr_energy">   -402.83012020 </i>
    <i name="e_wo_entrp">   -402.84308832 </i>
    <i name="e_0_energy">   -402.83444290 </i>
   </energy>
  </scstep>
  <scstep>
   <time name="dav">  179.88  180.09</time>
   <time name="total">  204.82  205.06</time>
   <dipole>
    <v name="dipole">      0.00000000       0.00000000      -0.06239474 </v>
    <i name="Tr[quadrupol]"> -27700.59485756 </i>
    <i name="Echarged">      0.00000000 </i>
    <i name="Edipol_quadrupol">      0.00000000 </i>
    <i name="Eion">      0.00000000 </i>
   </dipole>
   <energy>
    <i name="e_fr_energy">   -402.83030129 </i>
    <i name="e_wo_entrp">   -402.84324839 </i>
    <i name="e_0_energy">   -402.83461699 </i>
   </energy>
  </scstep>
  <scstep>
   <time name="dav">  175.55  175.78</time>
   <time name="total">  200.49  200.78</time>
   <dipole>
    <v name="dipole">      0.00000000       0.00000000      -0.06118788 </v>
    <i name="Tr[quadrupol]"> -27700.63450121 </i>
    <i name="Echarged">      0.00000000 </i>
    <i name="Edipol_quadrupol">      0.00000000 </i>
    <i name="Eion">      0.00000000 </i>
   </dipole>
   <energy>
    <i name="e_fr_energy">   -402.83042799 </i>
    <i name="e_wo_entrp">   -402.84332535 </i>
    <i name="e_0_energy">   -402.83472711 </i>
   </energy>
  </scstep>
  <scstep>
   <time name="dav">  170.01  170.24</time>
   <time name="total">  195.01  195.31</time>
   <dipole>
    <v name="dipole">      0.00000000       0.00000000      -0.06063356 </v>
    <i name="Tr[quadrupol]"> -27700.66946066 </i>
    <i name="Echarged">      0.00000000 </i>
    <i name="Edipol_quadrupol">      0.00000000 </i>
    <i name="Eion">      0.00000000 </i>
   </dipole>
   <energy>
    <i name="e_fr_energy">   -402.83047354 </i>
    <i name="e_wo_entrp">   -402.84336836 </i>
    <i name="e_0_energy">   -402.83477181 </i>
   </energy>
  </scstep>
  <scstep>
   <time name="dav">  161.34  161.54</time>
   <time name="total">  186.23  186.47</time>
   <dipole>
    <v name="dipole">      0.00000000       0.00000000      -0.06068011 </v>
    <i name="Tr[quadrupol]"> -27700.72143013 </i>
    <i name="Echarged">      0.00000000 </i>
    <i name="Edipol_quadrupol">      0.00000000 </i>
    <i name="Eion">      0.00000000 </i>
   </dipole>
   <energy>
    <i name="e_fr_energy">   -402.83052021 </i>
    <i name="e_wo_entrp">   -402.84343364 </i>
    <i name="e_0_energy">   -402.83482469 </i>
   </energy>
  </scstep>
  <scstep>
   <time name="dav">  168.80  169.00</time>
   <time name="total">  193.79  194.01</time>
   <dipole>
    <v name="dipole">      0.00000000       0.00000000      -0.06145923 </v>
    <i name="Tr[quadrupol]"> -27700.77485463 </i>
    <i name="Echarged">      0.00000000 </i>
    <i name="Edipol_quadrupol">      0.00000000 </i>
    <i name="Eion">      0.00000000 </i>
   </dipole>
   <energy>
    <i name="e_fr_energy">   -402.83054877 </i>
    <i name="e_wo_entrp">   -402.84346292 </i>
    <i name="e_0_energy">   -402.83485349 </i>
   </energy>
  </scstep>
  <scstep>
   <time name="dav">  161.88  162.07</time>
   <time name="total">  186.86  187.12</time>
   <dipole>
    <v name="dipole">      0.00000000       0.00000000      -0.06184683 </v>
    <i name="Tr[quadrupol]"> -27700.81290942 </i>
    <i name="Echarged">      0.00000000 </i>
    <i name="Edipol_quadrupol">      0.00000000 </i>
    <i name="Eion">      0.00000000 </i>
   </dipole>
   <energy>
    <i name="e_fr_energy">   -402.83056593 </i>
    <i name="e_wo_entrp">   -402.84347694 </i>
    <i name="e_0_energy">   -402.83486960 </i>
   </energy>
  </scstep>
  <scstep>
   <time name="dav">  163.90  164.10</time>
   <time name="total">  188.71  188.99</time>
   <dipole>
    <v name="dipole">      0.00000000       0.00000000      -0.05504622 </v>
    <i name="Tr[quadrupol]"> -27700.75721796 </i>
    <i name="Echarged">      0.00000000 </i>
    <i name="Edipol_quadrupol">      0.00000000 </i>
    <i name="Eion">      0.00000000 </i>
   </dipole>
   <energy>
    <i name="e_fr_energy">   -402.83059675 </i>
    <i name="e_wo_entrp">   -402.84350347 </i>
    <i name="e_0_energy">   -402.83489899 </i>
   </energy>
  </scstep>
  <scstep>
   <time name="dav">  179.88  180.11</time>
   <time name="total">  204.83  205.17</time>
   <dipole>
    <v name="dipole">      0.00000000       0.00000000      -0.05199684 </v>
    <i name="Tr[quadrupol]"> -27700.71674954 </i>
    <i name="Echarged">      0.00000000 </i>
    <i name="Edipol_quadrupol">      0.00000000 </i>
    <i name="Eion">      0.00000000 </i>
   </dipole>
   <energy>
    <i name="e_fr_energy">   -402.83060312 </i>
    <i name="e_wo_entrp">   -402.84351168 </i>
    <i name="e_0_energy">   -402.83490597 </i>
   </energy>
  </scstep>
  <scstep>
   <time name="dav">  140.43  140.60</time>
   <time name="total">  165.37  165.57</time>
   <dipole>
    <v name="dipole">      0.00000000       0.00000000      -0.05053219 </v>
    <i name="Tr[quadrupol]"> -27700.69708532 </i>
    <i name="Echarged">      0.00000000 </i>
    <i name="Edipol_quadrupol">      0.00000000 </i>
    <i name="Eion">      0.00000000 </i>
   </dipole>
   <energy>
    <i name="e_fr_energy">   -402.83060451 </i>
    <i name="e_wo_entrp">   -402.84351323 </i>
    <i name="e_0_energy">   -402.83490741 </i>
   </energy>
  </scstep>
  <scstep>
   <time name="dav">  148.01  148.17</time>
   <time name="total">  173.00  173.19</time>
   <dipole>
    <v name="dipole">      0.00000000       0.00000000      -0.04977731 </v>
    <i name="Tr[quadrupol]"> -27700.69464824 </i>
    <i name="Echarged">      0.00000000 </i>
    <i name="Edipol_quadrupol">      0.00000000 </i>
    <i name="Eion">      0.00000000 </i>
   </dipole>
   <energy>
    <i name="e_fr_energy">   -402.83061233 </i>
    <i name="e_wo_entrp">   -402.84352266 </i>
    <i name="e_0_energy">   -402.83491577 </i>
   </energy>
  </scstep>
  <scstep>
   <time name="dav">  144.76  144.92</time>
   <time name="total">  169.69  169.88</time>
   <dipole>
    <v name="dipole">      0.00000000       0.00000000      -0.05045789 </v>
    <i name="Tr[quadrupol]"> -27700.69042389 </i>
    <i name="Echarged">      0.00000000 </i>
    <i name="Edipol_quadrupol">      0.00000000 </i>
    <i name="Eion">      0.00000000 </i>
   </dipole>
   <energy>
    <i name="e_fr_energy">   -402.83060989 </i>
    <i name="e_wo_entrp">   -402.84352076 </i>
    <i name="e_0_energy">   -402.83491351 </i>
   </energy>
  </scstep>
  <scstep>
   <time name="dav">  170.14  170.35</time>
   <time name="total">  195.10  195.34</time>
   <dipole>
    <v name="dipole">      0.00000000       0.00000000      -0.05500244 </v>
    <i name="Tr[quadrupol]"> -27700.71111244 </i>
    <i name="Echarged">      0.00000000 </i>
    <i name="Edipol_quadrupol">      0.00000000 </i>
    <i name="Eion">      0.00000000 </i>
   </dipole>
   <energy>
    <i name="e_fr_energy">   -402.83061673 </i>
    <i name="e_wo_entrp">   -402.84353319 </i>
    <i name="e_0_energy">   -402.83492222 </i>
   </energy>
  </scstep>
  <scstep>
   <time name="dav">  172.56  172.77</time>
   <time name="total">  197.50  197.74</time>
   <dipole>
    <v name="dipole">      0.00000000       0.00000000      -0.05877908 </v>
    <i name="Tr[quadrupol]"> -27700.75805840 </i>
    <i name="Echarged">      0.00000000 </i>
    <i name="Edipol_quadrupol">      0.00000000 </i>
    <i name="Eion">      0.00000000 </i>
   </dipole>
   <energy>
    <i name="e_fr_energy">   -402.83062824 </i>
    <i name="e_wo_entrp">   -402.84353621 </i>
    <i name="e_0_energy">   -402.83493090 </i>
   </energy>
  </scstep>
  <scstep>
   <time name="dav">  168.62  168.82</time>
   <time name="total">  193.63  193.85</time>
   <dipole>
    <v name="dipole">      0.00000000       0.00000000      -0.06084798 </v>
    <i name="Tr[quadrupol]"> -27700.78616629 </i>
    <i name="Echarged">      0.00000000 </i>
    <i name="Edipol_quadrupol">      0.00000000 </i>
    <i name="Eion">      0.00000000 </i>
   </dipole>
   <energy>
    <i name="e_fr_energy">   -402.83065360 </i>
    <i name="e_wo_entrp">   -402.84355832 </i>
    <i name="e_0_energy">   -402.83495517 </i>
   </energy>
  </scstep>
  <scstep>
   <time name="dav">  151.52  151.72</time>
   <time name="total">  176.34  176.56</time>
   <dipole>
    <v name="dipole">      0.00000000       0.00000000      -0.06195805 </v>
    <i name="Tr[quadrupol]"> -27700.80407569 </i>
    <i name="Echarged">      0.00000000 </i>
    <i name="Edipol_quadrupol">      0.00000000 </i>
    <i name="Eion">      0.00000000 </i>
   </dipole>
   <energy>
    <i name="e_fr_energy">   -402.83067377 </i>
    <i name="e_wo_entrp">   -402.84358096 </i>
    <i name="e_0_energy">   -402.83497617 </i>
   </energy>
  </scstep>
  <scstep>
   <time name="dav">  161.34  161.54</time>
   <time name="total">  186.33  186.56</time>
   <dipole>
    <v name="dipole">      0.00000000       0.00000000      -0.06172426 </v>
    <i name="Tr[quadrupol]"> -27700.82290332 </i>
    <i name="Echarged">      0.00000000 </i>
    <i name="Edipol_quadrupol">      0.00000000 </i>
    <i name="Eion">      0.00000000 </i>
   </dipole>
   <energy>
    <i name="e_fr_energy">   -402.83068616 </i>
    <i name="e_wo_entrp">   -402.84359453 </i>
    <i name="e_0_energy">   -402.83498895 </i>
   </energy>
  </scstep>
  <scstep>
   <time name="dav">  170.56  170.76</time>
   <time name="total">  195.38  195.60</time>
   <dipole>
    <v name="dipole">      0.00000000       0.00000000      -0.06163819 </v>
    <i name="Tr[quadrupol]"> -27700.83515244 </i>
    <i name="Echarged">      0.00000000 </i>
    <i name="Edipol_quadrupol">      0.00000000 </i>
    <i name="Eion">      0.00000000 </i>
   </dipole>
   <energy>
    <i name="e_fr_energy">   -402.83069263 </i>
    <i name="e_wo_entrp">   -402.84360158 </i>
    <i name="e_0_energy">   -402.83499561 </i>
   </energy>
  </scstep>
  <scstep>
   <time name="dav">  136.93  137.09</time>
   <time name="total">  148.87  149.04</time>
   <dipole>
    <v name="dipole">      0.00000000       0.00000000      -0.06186363 </v>
    <i name="Tr[quadrupol]"> -27700.84389941 </i>
    <i name="Echarged">      0.00000000 </i>
    <i name="Edipol_quadrupol">      0.00000000 </i>
    <i name="Eion">      0.00000000 </i>
   </dipole>
   <energy>
    <i name="alphaZ">    722.91246588 </i>
    <i name="ewald"> 146048.89437316 </i>
    <i name="hartreedc">-199634.70382942 </i>
    <i name="XCdc">   2294.37751341 </i>
    <i name="pawpsdc">  75372.66423515 </i>
    <i name="pawaedc"> -74791.98743664 </i>
    <i name="eentropy">      0.01290864 </i>
    <i name="bandstr"> -11848.25234367 </i>
    <i name="atom">  61433.25142123 </i>
    <i name="e_fr_energy">   -402.83069225 </i>
    <i name="e_wo_entrp">   -402.84360088 </i>
    <i name="e_0_energy">   -402.83499513 </i>
   </energy>
  </scstep>
  <structure>
   <crystal>
    <varray name="basis" >
     <v>      15.62500000       0.00000000       0.00000000 </v>
     <v>      -7.81250000      13.53164693       0.00000000 </v>
     <v>       0.00000000       0.00000000      20.00000000 </v>
    </varray>
    <i name="volume">   4228.63966688 </i>
    <varray name="rec_basis" >
     <v>       0.06400000       0.03695042       0.00000000 </v>
     <v>       0.00000000       0.07390083       0.00000000 </v>
     <v>       0.00000000       0.00000000       0.05000000 </v>
    </varray>
   </crystal>
   <varray name="positions" >
    <v>       0.06721961       0.13381259       0.18697160 </v>
    <v>       0.26648170       0.13389610       0.18693730 </v>
    <v>       0.46650869       0.13349319       0.18734384 </v>
    <v>       0.66666434       0.13324296       0.18753730 </v>
    <v>       0.86692703       0.13338464       0.18742474 </v>
    <v>       0.06744459       0.33365776       0.18552477 </v>
    <v>       0.26782090       0.33683514       0.18237245 </v>
    <v>       0.46625541       0.33362676       0.18532646 </v>
    <v>       0.66641904       0.33336202       0.18727906 </v>
    <v>       0.86696228       0.33339775       0.18735940 </v>
    <v>       0.06735325       0.53330070       0.18699365 </v>
    <v>       0.26801673       0.53019176       0.18250559 </v>
    <v>       0.46126117       0.52960631       0.18186758 </v>
    <v>       0.66514199       0.53256740       0.18731885 </v>
    <v>       0.86652065       0.53324055       0.18789486 </v>
    <v>       0.06657782       0.73322806       0.18787234 </v>
    <v>       0.26624679       0.73217448       0.18685540 </v>
    <v>       0.46484813       0.73196049       0.18571386 </v>
    <v>       0.66534111       0.73168273       0.18889414 </v>
    <v>       0.86630687       0.73307819       0.18828287 </v>
    <v>       0.06662763       0.93340293       0.18796528 </v>
    <v>       0.26674084       0.93332982       0.18780718 </v>
    <v>       0.46649443       0.93289553       0.18745652 </v>
    <v>       0.66602302       0.93246125       0.18790517 </v>
    <v>       0.86642325       0.93313434       0.18824073 </v>
    <v>       0.13291502       0.06594152       0.10828130 </v>
    <v>       0.33310876       0.06635928       0.10843400 </v>
    <v>       0.53328484       0.06652761       0.10850057 </v>
    <v>       0.73311463       0.06600123       0.10868971 </v>
    <v>       0.93287087       0.06588420       0.10856903 </v>
    <v>       0.13238382       0.26515795       0.10611109 </v>
    <v>       0.33229022       0.26528427       0.10616226 </v>
    <v>       0.53365357       0.26613408       0.10758787 </v>
    <v>       0.73337966       0.26662126       0.10841983 </v>
    <v>       0.93252592       0.26618250       0.10773073 </v>
    <v>       0.13254873       0.46708660       0.10616327 </v>
    <v>       0.33218941       0.46562083       0.09911926 </v>
    <v>       0.53409987       0.46687265       0.10604902 </v>
    <v>       0.73347090       0.46704840       0.10851606 </v>
    <v>       0.93321326       0.46688125       0.10848920 </v>
    <v>       0.13275600       0.66681635       0.10822329 </v>
    <v>       0.33196733       0.66629605       0.10617959 </v>
    <v>       0.53427053       0.66685768       0.10737415 </v>
    <v>       0.73317841       0.66703827       0.10907784 </v>
    <v>       0.93304559       0.66674438       0.10902516 </v>
    <v>       0.13323983       0.86664275       0.10893134 </v>
    <v>       0.33310522       0.86656389       0.10843916 </v>
    <v>       0.53370624       0.86730889       0.10792931 </v>
    <v>       0.73271176       0.86520518       0.10948101 </v>
    <v>       0.93295231       0.86639291       0.10913806 </v>
    <v>       0.13389953       0.06780931       0.26646841 </v>
    <v>       0.33330893       0.06763865       0.26650326 </v>
    <v>       0.53312814       0.06659531       0.26647441 </v>
    <v>       0.73344314       0.06657605       0.26659173 </v>
    <v>       0.93438654       0.06774895       0.26661927 </v>
    <v>       0.13755722       0.27054951       0.26430864 </v>
    <v>       0.33283939       0.27097741       0.26404564 </v>
    <v>       0.53239927       0.26762334       0.26582472 </v>
    <v>       0.73342178       0.26687098       0.26643526 </v>
    <v>       0.93522082       0.26759662       0.26585438 </v>
    <v>       0.13771934       0.46690395       0.26433846 </v>
    <v>       0.52812159       0.46617129       0.26463732 </v>
    <v>       0.73218861       0.46634669       0.26664614 </v>
    <v>       0.93430508       0.46663692       0.26651827 </v>
    <v>       0.13380519       0.66600395       0.26640428 </v>
    <v>       0.33227932       0.66040937       0.26459583 </v>
    <v>       0.52452581       0.66022856       0.26528975 </v>
    <v>       0.73211523       0.66511839       0.26709581 </v>
    <v>       0.93330595       0.66631485       0.26713184 </v>
    <v>       0.13356765       0.86673871       0.26699896 </v>
    <v>       0.33322703       0.86538607       0.26650318 </v>
    <v>       0.53171353       0.86453735       0.26616984 </v>
    <v>       0.73253086       0.86599014       0.26730163 </v>
    <v>       0.93335116       0.86676630       0.26727092 </v>
    <v>       0.33041356       0.46422553       0.23726985 </v>
    <v>       0.43401493       0.56586593       0.34457575 </v>
   </varray>
  </structure>
  <varray name="forces" >
   <v>      -0.00275025      -0.00974360      -0.00453143 </v>
   <v>      -0.00472037      -0.00854160      -0.01000183 </v>
   <v>      -0.00374883      -0.00299227      -0.00463192 </v>
   <v>      -0.00331889      -0.00421862       0.00194054 </v>
   <v>      -0.00315940      -0.00660743       0.00306930 </v>
   <v>      -0.00545470      -0.01044450      -0.01266267 </v>
   <v>      -0.00485665      -0.00007092      -0.01615041 </v>
   <v>      -0.00541555      -0.00673446      -0.00628482 </v>
   <v>      -0.00378805      -0.00513130      -0.00217232 </v>
   <v>      -0.00350036      -0.00439269      -0.00428853 </v>
   <v>      -0.00596553      -0.00246749      -0.00715400 </v>
   <v>       0.00538746      -0.01019851      -0.01304596 </v>
   <v>      -0.01612780      -0.01497623      -0.02242129 </v>
   <v>      -0.01362834      -0.00648514       0.01188941 </v>
   <v>      -0.00534629      -0.00405878       0.00348097 </v>
   <v>      -0.00326335      -0.00261752       0.00360293 </v>
   <v>      -0.00207944      -0.00978209      -0.00249115 </v>
   <v>      -0.01982595       0.00787583      -0.02392664 </v>
   <v>       0.01023344       0.00025848       0.00882714 </v>
   <v>      -0.00217627      -0.00750129       0.01582356 </v>
   <v>      -0.00342831      -0.00724314       0.00625506 </v>
   <v>      -0.00166058      -0.00670990       0.00090276 </v>
   <v>      -0.00528160      -0.00084243      -0.00154989 </v>
   <v>      -0.00479788      -0.00411491       0.00832019 </v>
   <v>      -0.00230697      -0.00338833       0.01352108 </v>
   <v>      -0.00650515      -0.01723238      -0.00288493 </v>
   <v>      -0.00007561      -0.00887913      -0.00411461 </v>
   <v>      -0.00048163      -0.00078672      -0.00163457 </v>
   <v>      -0.00216822      -0.00869997       0.00636198 </v>
   <v>      -0.00569523      -0.01343641       0.00470726 </v>
   <v>      -0.00474829      -0.01237017      -0.00893987 </v>
   <v>       0.00043860      -0.00834744      -0.01253009 </v>
   <v>      -0.00283460      -0.00356555      -0.00528119 </v>
   <v>      -0.00254889      -0.00497321      -0.00250837 </v>
   <v>      -0.00658579      -  <energy>
   <i name="e_fr_energy">   -402.73579650 </i>
   <i name="e_wo_entrp">   -402.74912891 </i>
   <i name="e_0_energy">   -402.74024064 </i>
  </energy>
  <time name="totalsc"> 8719.72 8730.99</time>
 </calculation>
<v>      -0.00833118      -0.00156693       0.00526379 </v>
   <v>      -0.00808915      -0.00255304      -0.00332913 </v>
   <v>      -0.01084440       0.00069050      -0.00144813 </v>
   <v>      -0.01080530      -0.00597629      -0.01310262 </v>
   <v>       0.00240363       0.00058927      -0.00908954 </v>
   <v>       0.00853595      -0.00772916       0.00603652 </v>
   <v>      -0.00743432      -0.00057474       0.00777230 </v>
   <v>      -0.00526246      -0.00330125       0.00151467 </v>
   <v>      -0.00174990      -0.00673405       0.00147942 </v>
   <v>      -0.00406516       0.01175549      -0.00657652 </v>
   <v>      -0.00028612       0.00852014       0.00719062 </v>
   <v>      -0.00682047      -0.00952130       0.01414637 </v>
   <v>      -0.00021112      -0.00046632      -0.00197378 </v>
   <v>      -0.00221505       0.00060549      -0.00162396 </v>
   <v>      -0.00859559      -0.001621  <energy>
   <i name="e_fr_energy">   -402.62179849 </i>
   <i name="e_wo_entrp">   -402.62847149 </i>
   <i name="e_0_energy">   -402.62402282 </i>
  </energy>
  <time name="totalsc"> 8726.23 8730.56</time>
 </calculation>
 -0.00720537      -0.00858779      -0.01092099 </v>
   <v>      -0.00425906      -0.00192318      -0.00479873 </v>
   <v>      -0.00216714      -0.00121676      -0.00229718 </v>
   <v>      -0.00186104      -0.00149491      -0.00315116 </v>
   <v>       0.00207867      -0.01129480      -0.01296815 </v>
   <v>      -0.03270686      -0.00409613      -0.00437401 </v>
   <v>      -0.00581614      -0.00624461       0.00123377 </v>
   <v>      -0.00083450      -0.00494044      -0.00220166 </v>
   <v>       0.00095459      -0.00649844      -0.00227015 </v>
   <v>       0.00746506      -0.00328797      -0.01456633 </v>
   <v>      -0.00989890      -0.01019364      -0.06572860 </v>
   <v>       0.00071283      -0.00826489       0.01331524 </v>
   <v>       0.00367994      -0.00555682       0.00684191 </v>
   <v>       0.00019920      -0.00237410       0.00384929 </v>
   <v>      -0.00355699      -0.00705850      -0.00169045 </v>
   <v>      -0.01057317      -0.00747009      -0.00246151 </v>
   <v>      -0.00064235       0.00185465       0.01096763 </v>
   <v>      -0.00026032      -0.00328927       0.01145390 </v>
   <v>       0.01737170       0.00504287      -0.03311218 </v>
   <v>       0.27499746       0.34317500       0.23498306 </v>
  </varray>
  <varray name="stress" >
   <v>       8.83101030      -0.00093649       0.35615624 </v>
   <v>      -0.00093649       8.84167803       0.42123083 </v>
   <v>       0.35615628       0.42123080      -0.07995973 </v>
  </varray>
  <energy>
   <i name="e_fr_energy">   -402.28928056 </i>
   <i name="e_wo_entrp">   -402.30704315 </i>
   <i name="e_0_energy">   -402.29520142 </i>
  </energy>
  <time name="totalsc"> 8721.15 8732.97</time>
 </calculation>

   <v>      -0.00502856      -0.01193573       0.00227078 </v>
   <v>      -0.01423534      -0.01693269      -0.01597142 </v>
   <v>       0.00373556      -0.01374767      -0.01047222 </v>
   <v>       0.00433735      -0.00492321      -0.00296431 </v>
   <v>      -0.00041144      -0.00262878      -0.00223299 </v>
   <v>      -0.00847993      -  <energy>
   <i name="e_fr_energy">   -403.21718688 </i>
   <i name="e_wo_entrp">   -403.23104630 </i>
   <i name="e_0_energy">   -403.22180668 </i>
  </energy>
  <time name="totalsc"> 8723.07 8736.17</time>
 </calculation>
<v>      -0.00753762       0.00499116       0.00135192 </v>
   <v>      -0.00330835      -0.00031134      -0.00229864 </v>
   <v>      -0.00936136       0.00167986       0.00047574 </v>
   <v>      -0.00106845      -0.00368454       0.00345598 </v>
   <v>      -0.00667399      -0.01698318       0.03249277 </v>
   <v>      -0.00293178       0.00670577       0.01156928 </v>
   <v>      -0.00428244       0.00118013       0.00025474 </v>
   <v>      -0.00041675       0.00090946       0.00149139 </v>
   <v>       0.00122130       0.00129327       0.00164776 </v>
   <v>       0.00486538      -0.00638017       0.01301419 </v>
   <v>      -0.00118172      -0.01307002       0.01524858 </v>
   <v>      -0.00347130      -0.00184135       0.00505834 </v>
   <v>       0.00046121       0.00068095       0.00056250 </v>
   <v>       0.00222912      -0.00020314       0.00205006 </v>
   <v>       0.00124645      -0.00019056       0.00245676 </v>
   <v>      -0.00174285       0.00016726       0.00339334 </v>
   <v>      -0.00232494      -0.00186041       0.00340283 </v>
   <v>      -0.00282837      -0.00362558      -0.01504508 </v>
   <v>      -0.00948072       0.00261227      -0.01640279 </v>
   <v>       0.00108305      -0.00189154      -0.00265697 </v>
   <v>      -0.00036355      -0.00007493      -0.00220875 </v>
   <v>      -0.00022789      -0.00142825      -0.00436687 </v>
   <v>      -0.00723160      -0.00764003      -0.01153246 </v>
   <v>       0.01507814      -0.02258168    <energy>
   <i name="e_fr_energy">   -402.29799774 </i>
   <i name="e_wo_entrp">   -402.30628541 </i>
   <i name="e_0_energy">   -402.30076030 </i>
  </energy>
  <time name="totalsc"> 8723.97 8735.25</time>
 </calculation>
01540843      -0.02174768      -0.01245939 </v>
   <v>      -0.05330567      -0.02223414       0.06731963 </v>
   <v>       0.00842796      -0.00607249       0.00910049 </v>
   <v>       0.00083399      -0.00173702       0.00051937 </v>
   <v>       0.00161497      -0.00170272       0.00108473 </v>
   <v>       0.00005615      -0.00086694       0.00356717 </v>
   <v>      -0.00372795      -0.00095179       0.00831610 </v>
   <v>      -0.00263424      -0.00143472       0.01462062 </v>
   <v>      -0.00280315      -0.00330767       0.00642177 </v>
   <v>      -0.07134678      -0.06721623      -0.01668907 </v>
   <v>       0.33289078       0.47198759      -0.11558603 </v>
  </varray>
  <varray name="stress" >
   <v>       8.92049538       0.00335546       0.34308409 </v>
   <v>       0.00335544       8.63920844       0.51599987 </v>
   <v>       0.34308411       0.51599991      -0.47310428 </v>
  </varray>
  <energy>
   <i name="e_fr_energy">   -402.39092575 </i>
   <i name="e_wo_entrp">   -402.39713950 </i>
   <i name="e_0_energy">   -402.39299700 </i>
  </energy>
  <time name="totalsc"> 87   <time name="dav">  118.   <time name="dav   <time name="total">  13   <time name="total">  140.75  141.00</time>
   <dipole>
    <   <time name="total">  141   <time name="dav">  176.98  177.19</time>
   <time name="total">  201.90  202.22</time>
   <dipole>
    <v name="dipole">      0.00000000       0.00000000      -0.06184298 </v>
    <i name="Tr[quadrupol]"> -27700.73676624 </i>
    <i name="Echarged">      0.00000000 </i>
    <i name="Edipol_quadrupol">      0.00000000 </i>
    <i name="Eion">      0.00000000 </i>
   </dipole>
   <energy>
    <i name="alphaZ">    722.91298736 </i>
    <i name="ewald"> 146050.44200246 </i>
    <i name="hartreedc">-199636.24838465 </i>
    <i name="XCdc">   2294.37897856 </i>
    <i name="pawpsdc">  75372.64609795 </i>
    <i name="pawaedc"> -74791.96929628 </i>
    <i name="eentropy">      0.01289042 </i>
    <i name="bandstr"> -11848.25731336 </i>
    <i name="atom">  61433.25142123 </i>
    <i name="e_fr_   <time name="dav">  127.40  127.56</time>
   <time name="total">  147.32  147.51</time>
   <dipole>
    <   <time name="   <time na   <time name="total">  148   <time name="dav">  187.50  187.71</time>
   <time name="total">  212.37  212.61</time>
   <dipole>
    <v name="dipole">      0.00000000       0.00000000      -0.06242632 </v>
    <i name="Tr[quadrupol]"> -27700.73908718 </i>
    <i name="Echarged">      0.00000000 </i>
    <i name="Edipol_quadrupol">      0.00000000 </i>
    <i name="Eion">      0.00000000 </i>
   </dipole>
   <energy>
    <i name="e_fr_energy">   -402.83066782 </i>
    <i name="e_wo_entrp">   -402.8435825   <time name="tota   <time name="dav">  127.20  127.23</time>
   <time name="total">  147   <time name="dav">  179.42  179.62</time>
   <time name="total">  204.28  204.55</time>
   <dipole>
    <v name="dipole">      0.00000000       0.00000000      -0.06226710 </v>
    <i name="Tr[quadrupol]"> -27700.74012493 </i>
    <i name="Echarged">      0.00000000 </i>
    <i name="Edipol_quadrupol">      0.00000000 </i>
    <i name="Eion">      0.00000000 </i>
   </dipole>
   <energy>
    <i name="e_fr_energy">   -402.83067051 </i>
    <i name="e_wo_entrp">   -402.84361117 </i>
    <i name="e_0_energy">   -402.83498407 </i>
   </energy>
  </scstep>
  <scstep>
   <time name="dav">  152.11  152.31</time>
   <time name="total">  176.94  177.17</time>
   <dipole>
    <v name="dipole">      0.00000000       0.00000000      -0.06257141 </v>
    <i name="Tr[quadrupol]"> -27700.74123215 </i>
    <i name="Echarged">      0.00000000 </i>
    <i name="Edipol_quadrupol">      0.00000000 </i>
    <i name="Eion">      0.00000000 </i>
   </dipole>
   <energy>
    <i name="e_fr_energy">   -402.83067272 </i>
    <i name="e_wo_entrp">   -402.84358553 </i>
    <i name="e_0_energy">   -402.83497699 </i>
   </energy>
  </scstep>
  <scstep>
   <time name="dav">  146.61  146.78</time>
   <time name="total">  171.37  171.57</time>
   <dipole>
    <v name="dipole">      0.00000000       0.00000000      -0.06274246 </v>
    <i name="Tr[quadrupol]"> -27700.74250686 </i>
    <i name="Echarged">      0.00000000 </i>
    <i name="Edipol_quadrupol">      0.00000000 </i>
    <i name="Eion">      0.00000000 </i>
   </dipole>
   <energy>
    <i name="e_fr_energy">   -402.83067492 </i>
    <i name="e_wo_entrp">   -402.84358775 </i>
    <i name="e_0_energy">   -402.83497920 </i>
   </energy>
  </scstep>
  <scstep>
   <time name="dav">  142.84  143.02</time>
   <time name="total">  167.55  167.80</time>
   <dipole>
    <v name="dipole">      0.00000000       0.00000000      -0.06291359 </v>
    <i name="Tr[quadrupol]"> -27700.74411187 </i>
    <i name="Echarged">      0.00000000 </i>
    <i name="Edipol_quadrupol">      0.00000000 </i>
    <i name="Eion">      0.00000000 </i>
   </dipole>
   <energy>
    <i name="e_fr_energy">   -402.83067759 </i>
    <i name="e_wo_entrp">   -402.84359557 </i>
    <i name="e_0_energy">   -402.83498359 </i>
   </energy>
  </scstep>
  <scstep>
   <time name="dav">  141.51  141.70</time>
   <time name="total">  166.43  166.65</time>
   <dipole>
    <v name="dipole">      0.00000000       0.00000000      -0.06304158 </v>
    <i name="Tr[quadrupol]"> -27700.73673462 </i>
    <i name="Echarged">      0.00000000 </i>
    <i name="Edipol_quadrupol">      0.00000000 </i>
    <i name="Eion">      0.00000000 </i>
   </dipole>
   <energy>
    <i name="e_fr_energy">   -402.83067897 </i>
    <i name="e_wo_entrp">   -402.84359737 </i>
    <i name="e_0_energy">   -402.83498511 </i>
   </energy>
  </scstep>
  <scstep>
   <time name="dav">  140.00  140.16</time>
   <time name="total">  151.81  151.99</time>
   <dipole>
    <v name="dipole">      0.00000000       0.00000000      -0.06308127 </v>
    <i name="Tr[quadrupol]"> -27700.72053153 </i>
    <i name="Echarged">      0.00000000 </i>
    <i name="Edipol_quadrupol">      0.00000000 </i>
    <i name="Eion">      0.00000000 </i>
   </dipole>
   <energy>
    <i name="alphaZ">    722.52157939 </i>
    <i name="ewald"> 146050.44200246 </i>
    <i name="hartreedc">-199636.31473934 </i>
    <i name="XCdc">   2294.37896420 </i>
    <i name="pawpsdc">  75373.16728777 </i>
    <i name="pawaedc"> -74792.49071450 </i>
    <i name="eentropy">      0.01292009 </i>
    <i name="bandstr"> -11847.79940095 </i>
    <i name="atom">  61433.25142123 </i>
    <i name="e_fr_energy">   -402.83067965 </i>
    <i name="e_wo_entrp">   -402.84359974 </i>
    <i name="e_0_energy">   -402.83498634 </i>
   </energy>
  </scstep>
  <structure>
   <crystal>
    <varray name="basis" >
     <v>      15.62500000       0.00000000       0.00000000 </v>
     <v>      -7.81250000      13.53164693       0.00000000 </v>
     <v>       0.00000000       0.00000000      20.00000000 </v>
    </varray>
    <i name="volume">   4228.63966688 </i>
    <varray name="rec_basis" >
     <v>       0.06400000       0.03695042       0.00000000 </v>
     <v>       0.00000000       0.07390083       0.00000000 </v>
[...]
   <v>      -0.01184120      -0.01318296      -0.02  <energy>
   <i name="e_fr_energy">   -402.73061941 </i>
   <i name="e_wo_entrp">   -402.74414195 </i>
   <i name="e_0_energy">   -402.73512692 </i>
  </energy>
  <time name="totalsc"> 1881.89 1884.08</time>
 </calculation>
4505743 </i>
   <i name="e_0_energy">   -402.83626956 </i>
  </energy>
  <time name="totalsc"> 1880.97 1884.19</time>
 </calculation>
02416764       0.01750637 </v>
   <v>      -0.00198898      -0.00425154       0.00531317 </v>
   <v>      -0.00305237      -0.00051728      -0.00042041 </v>
   <v>      -0.00407559      -0.00000542      -0.00033664 </v>
   <v>      -0.00891677      -0.00125687      -0.00023280 </v>
   <v>       <energy>
   <i name="e_fr_energy">   -402.98461237 </i>
   <i name="e_wo_entrp">   -402.99851741 </i>
   <i name="e_0_energy">   -402.98924738 </i>
  </energy>
  <time name="totalsc"> 1881.74 1884.13</time>
 </calculation>
0.00468353 </v>
   <v>       0.00127727      -0.00163745       0.00259693 </v>
   <v>       0.00110339      -0.00259191       0.00519735 </v>
   <v>      -0.00212402      -0.00619025       0.01326775 </v>
   <v>      -0.00265186      -0.00588399       0.01099068 </v>
   <v>      -0.00371893      -0.01046688       0.00453856 </v>
   <v>       0.00030089      -0.00437191       0.00069582 </v>
   <v>       0.00076443      -0.00495391       0.00308441 </v>
   <v>      -0.00131059      -0.01081577       0.00457837 </v>
   <v>      -0.00484558      -0.01227959       0.00230273 </v>
   <v>      -0.00555558      -0.01626074      -0.01511485 </v>
   <v>       0.00136444      -0.01427068      -0.01051390 </v>
   <v>       0.00432620      -0.00539112      -0.00316619 </v>
   <v>      -0.00169289      -0.00262476      -0.00063780 </v>
   <v>      -0.01086000      -0.00606457      -0.00439405 </v>
   <v>      -0.00612353      -0.00435912      -0.00532239 </v>
   <v>      -0.00259442      -0.00090187      -0.02257374 </v>
   <v>      -0.01397764      -0.00128072       0.00515018 </v>
   <v>      -0.00557300       0.00192331      -0.00168140 </v>
   <v>      -0.00549954      -0.00030064      -0.00168675 </v>
   <v>      -0.00711497      -0.00164017      -0.00168657 </v>
   <v>      -0.00388047      -0.00534026       0.00287109 </v>
   <v>      -0.00220607      -0.01150038       0.02715358 </v>
   <v>      -0.00996807      -0.00167071       0.01191114 </v>
   <v>      -0.00648608       0.00189288       0.00220882 </v>
   <v>      -0.00099788       0.00032907       0.00145264 </v>
   <v>      -0.00005086       0.00127566       0.00081445 </v>
   <v>       0.00277538      -0.00639698       0.00787921 </v>
   <v>      -0.00145266      -0.02096663       0.02272015 </v>
   <v>      -0.00350183      -0.00338897       0.00579642 </v>
   <v>      -0.00094594      -0.00253210       0.00066965 </v>
   <v>       0.00157897      -0.00224132       0.00006522 </v>
   <v>      -0.00067103      -0.00122697       0.00229390 </v>
   <v>      -0.00144718      -0.00112772       0.00313714 </v>
   <v>      -0.00255326      -0.00142026       0.00197049 </v>
   <v>      -0.00467815      -0.00543108      -0.01022594 </v>
   <v>      -0.00965332      -0.00007485      -0.01484383 </v>
   <v>       0.00167273      -0.00367715       0.00041885 </v>
   <v>      -0.00093394      -0.00087860      -0.00069909 </v>
   <v>      -0.00185266      -0.00413697      -0.00506006 </v>
   <v>      -0.01023822      -0.01222158      -0.00529911 </v>
   <v>       0.01446957      -0.02247747       0.00348213 </v>
   <v>       0.00036323      -0.00325559       0.00249518 </v>
   <v>      -0.00190191      -0.00148403      -0.00137484 </v>
   <v>      -0.00671937      -0.00218867      -0.00312086 </v>
   <v>      -0.01778055      -0.01430121      -0.00972538 </v>
   <v>      -0.04584240      -0.00776972       0.06951073 </v>
   <v>       0.00378060      -0.00862806       0.00882322 </v>
   <v>      -0.00180624      -0.00142117       0.00189962 </v>
   <v>      -0.00112496      -0.00425133       0.00176140 </v>
   <v>       0.00039730      -0.00117145       0.00372137 </v>
   <v>      -0.00539879      -0.00180202       0.00798657 </v>
   <v>      -0.00065552      -0.00166718       0.01498810 </v>
   <v>       0.00135251      -0.00344426       0.00534324 </v>
   <v>      -0.07249328      -0.07412470      -0.02252778 </v>
   <v>       0.34892867       0.47851395      -0.13255615 </v>
  </varray>
  <varray name="stress" >
   <v>       8.93699820       0.01952194       0.36136044 </v>
   <v>       0.01952189       8.63462435       0.51625827 </v>
   <v>       0.36136041       0.51625825      -0.47674026 </v>
  </varray>
  <energy>
   <i name="e_fr_energy">   -402.39373340 </i>
   <i name="e_wo_entrp">   -402.39995003 </i>
   <i name="e_0_energy">   -402.39580561 </i>
  </energy>
  <time name="totalsc"> 18   <time name="dav">  119.10  119.26</time>
   <time name="total">  139.19  139.41</time>
   <dipole>
    <   <time name="total">  140.12  14   <time name="dav">  168.35  168.58</time>
   <time   <time name="dav">  176.68  176.88</time>
   <time name="total">  197.21  197.47</time>
   <dipole>
    <v name="dipole">      0.00000000       0.00000000      -0.04297845 </v>
    <i name="Tr[quadrupol]"> -27720.13143733 </i>
    <i name="Echarged">      0.00000000 </i>
    <i name="Edipol_quadrupol">      0.00000000 </i>
    <i name="Eion">      0.00000000 </i>
   </dipole>
   <energy>
    <i name="alphaZ">    724.28992410 </i>
    <i name="ewald"> 146337.10076337 </i>
    <i name="hartreedc">-199919.09267962 </i>
    <i name="XCdc">   2293.94767460 </i>
    <i name="pawpsdc">  75319.19916067 </i>
    <i name="pawaedc"> -74738.70577383 </i>
    <i name="eentropy">      0.00831395 </i>
    <i name="bandstr"> -11852.29680839 </i>
    <i name="atom">  61433   <time name="dav">  125.63  125.78</time>
   <time name="total">  145.77  145.96</time>
   <dipole>
    <   <time name="total">  148.98  14   <time name="dav">  176.   <time name="dav   <time   <time name="dav">  186.61  186.87</time>
   <time name="total">  207.61  207.90</time>
   <dipole>
    <v name="dipole">      0.00000000       0.00000000      -0.04295604 </v>
    <i name="Tr[quadrupol]"> -27720.13144218 </i>
    <i name="Echarged">      0.00000000 </i>
    <i name="Edipol_quadrupol">      0.00000000 </i>
    <i name="Eion">      0.00000000 </i>
   </dipole>
   <energy>
    <i name   <time name="dav">  122.91  123.07</time>
   <time name="total">  142.53  142.72</time>   <time name="dav">  127.   <time name="dav">  176.45  176.66</time>
   <time name="total">  196.80  197.04</time>
   <dipole>
    <v name="dipole">      0.00000000       0.00000000      -0.06430835 </v>
    <i name="Tr[quadrupol]"> -27697.34378768 </i>
    <i name="Echarged">      0.00000000 </i>
    <i name="Edipol_quadrupol">      0.00000000 </i>
    <i name="Eion">      0.00000000 </i>
   </dipole>
   <energy>
    <i name="e_fr_energy">   -402.83207732 </i>
    <i name="e_wo_entrp">   -402.84530208 </i>
    <i name="e_0_energy">   -402.83648557 </i>
   </energy>
  </scstep>
  <scstep>
   <time name="dav">  145.29  145.46</time>
   <time name="total">  157.19  157.39</time>
   <dipole>
    <v name="dipole">      0.00000000       0.00000000      -0.06439111 </v>
    <i name="Tr[quadrupol]"> -27697.33533743 </i>
    <i name="Echarged">      0.00000000 </i>
    <i name="Edipol_quadrupol">      0.00000000 </i>
    <i name="Eion">      0.00000000 </i>
   </dipole>
   <energy>
    <i name="alphaZ">    723.70580242 </i>
    <i name="ewald"> 146066.19174810 </i>
    <i name="hartreedc">-199652.09765220 </i>
    <i name="XCdc">   2294.39544148 </i>
    <i name="pawpsdc">  75376.36624996 </i>
    <i name="pawaedc"> -74795.68549213 </i>
    <i name="eentropy">      0.01320411 </i>
    <i name="bandstr"> -11848.97280035 </i>
    <i name="atom">  61433.25142123 </i>
    <i name="e_fr_energy">   -402.83207739 </i>
    <i name="e_wo_entrp">   -402.84528150 </i>
    <i name="e_0_energy">   -402.83647876 </i>
   </energy>
  </scstep>
  <structure>
   <crystal>
    <varray name="basis" >
     <v>      15.62500000       0.00000000       0.00000000 </v>
     <v>      -7.81250000      13.53164693       0.00000000 </v>
     <v>       0.00000000       0.00000000      20.00000000 </v>
    </varray>
    <i name="volume">   4228.63966688 </i>
    <varray name="rec_basis" >
     <v>       0.06400000       0.03695042       0.00000000 </v>
     <v>       0.00000000       0.07390083       0.00000000 </v>
     <v>       0.00000000       0.00000000       0.05000000 </v>
    </varray>
   </crystal>
   <varray name="positions" >
    <v>       0.06717190       0.13369253       0.18686764 </v>
    <v>       0.26645223       0.13379571       0.18681859 </v>
    <v>       0.46653280       0.13357115       0.18724396 </v>
    <v>       0.66671989       0.13334654       0.18745053 </v>
    <v>       0.86692332       0.13334098       0.18735455 </v>
    <v>       0.06733870       0.33353414       0.18527223 </v>
    <v>       0.26766396       0.33667557       0.18232524 </v>
    <v>       0.46616333       0.33366425       0.18549433 </v>
    <v>         <structure>
   <crystal>
    <varray name="basis" >
     <v>      15.62500000       0.00000000       0.00000000 </v>
     <v>      -7.81250000      13.53164693       0.00000000 </v>
     <v>       0.00000000       0.00000000      20.00000000 </v>
    </varray>
    <i name="volume">   4228.63966688 </i>
    <varray name="rec_basis" >
     <v>       0.06400000       0.03695042       0.00000000 </v>
     <v>       0.00000000       0.07390083       0.00000000 </v>
     <v>       0.00000000       0.00000000       0.05000000 </v>
    </varray>
   </crystal>
   <varray name="positions" >
    <v>       0.06736752       0.13390132       0.18685200 </v>
    <v>       0.26654611       0.13400658       0.18671286 </v>
    <v>       0.46663078       0.13365606       0.18727745 </v>
    <v>       0.66678789       0.13339007       0.18757120 </v>
    <v>       0.86704143       0.13350036       0.18743909 </v>
    <v>       0.06750450       0.33370656       0.18523432 </v>
    <v>       0.26813242       0.33724415       0.18193994 </v>
    <v>       0.46632477       0.33370251       0.18510658 </v>
    <v>       0.66651339       0.33348347       0.18731454 </v>
    <v>       0.86710153       0.33354460       0.18727435 </v>
    <v>       0.06748283       0.53351627       0.18686662 </v>
    <v>       0.26844747       0.53034972       0.18212023 </v>
    <v>       0.46081741       0.52907643       0.18075980 </v>
    <v>       0.66512300       0.53278340       0.18747180 </v>
    <v>       0.86662931       0.53339658       0.18805469 </v>
    <v>       0.06673718       0.73343889       0.18798610 </v>
    <v>       0.26633253       0.73222815       0.18679429 </v>
    <v>       0.46473514       0.73220694       0.18536426 </v>
    <v>       0.66558997       0.73184183       0.18908389 </v>
    <v>       0.86633900       0.73311749       0.18863722 </v>
    <v>       0.06672044       0.93351536       0.18805665 </v>
    <v>       0.26688151       0.93349477       0.18778832 </v>
    <v>       0.46667435       0.93311632       0.18746341 </v>
    <v>       0.66611294       0.93256134       0.18805014 </v>
    <v>       0.86648986       0.93324937       0.18852189 </v>
    <v>       0.13283812       0.06581191       0.10816629 </v>
    <v>       0.33326022       0.06642978       0.10830422 </v>
    <v>       0.53346419       0.06671952       0.10848884 </v>
    <v>       0.73317362       0.06599846       0.10879281 </v>
    <v>       0.93281050       0.06574825       0.10865937 </v>
    <v>       0.13232794       0.26505269       0.10586518 </v>
    <v>       0.33249896       0.26535592       0.10588878 </v>
    <v>       0.53390023       0.26624948       0.10751522 </v>
    <v>       0.73345487       0.26673509       0.10840546 </v>
    <v>       0.93244143       0.26613642       0.10756416 </v>
    <v>       0.13255375       0.46726570       0.10597588 </v>
    <v>       0.33179440       0.46549786       0.09810124 </v>
    <v>       0.53472550       0.46681591       0.10562134 </v>
    <v>       0.73359891       0.46730864       0.10872028 </v>
    <v>       0.93321819       0.46713053       0.10847489 </v>
    <v>       0.13279762       0.66713200       0.10821373 </v>
    <v>       0.33192762       0.66649407       0.10589083 </v>
    <v>       0.53476592       0.66737812       0.10706766 </v>
    <v>       0.73342828       0.66715756       0.10935186 </v>
    <v>       0.93307258       0.66694747       0.10925126 </v>
    <v>       0.13328265       0.86676602       0.10898000 </v>
    <v>       0.33327619       0.86672460       0.10845683 </v>
    <v>       0.53402573       0.86782630       0.10785093 </v>
    <v>       0.73296991       0.86548842       0.10970482 </v>
    <v>       0.93284547       0.86633132       0.10943706 </v>
    <v>       0.13417043       0.06811344       0.26639197 </v>
    <v>       0.33342253       0.06791678       0.26640159 </v>
    <v>       0.53323005       0.06682942       0.26647840 </v>
    <v>       0.73359171       0.06677186       0.26667127 </v>
    <v>       0.93472646       0.06813933       0.26669222 </v>
    <v>       0.13795501       0.27091513       0.26395219 </v>
    <v>       0.33279521       0.27108910       0.26375391 </v>
    <v>       0.53241240       0.26779650       0.26574938 </v>
    <v>       0.73364408       0.26706546       0.26641750 </v>
    <v>       0.93546975       0.26783027       0.26572515 </v>
    <v>       0.13809026       0.46698849       0.26396949 </v>
    <v>       0.52742468       0.46645146       0.26419377 </v>
    <v>       0.73214878       0.46641439       0.26675568 </v>
    <v>       0.93454379       0.46672062       0.26649924 </v>
    <v>       0.13402541       0.66611360       0.26640894 </v>
    <v>       0.33241672       0.66064621       0.26430261 </v>
    <v>       0.52326864       0.65804778       0.26370430 </v>
    <v>       0.73206204       0.66511233       0.26747281 </v>
    <v>       0.93357454       0.66643913       0.26734114 </v>
    <v>       0.13381248       0.86700434       0.26706533 </v>
    <v>       0.33335335       0.86553950       0.26648897 </v>
    <v>       0.53158265       0.86436029       0.26611736 </v>
    <v>       0.73251028       0.86603547       0.26755371 </v>
    <v>       0.93357166       0.86697266       0.26752773 </v>
    <v>       0.33164016       0.46493348       0.23639170 </v>
    <v>       0.44961993       0.58046485       0.35162959 </v>
   </varray>
  </structure>
  <varray name="forces" >
   <v>      -0.00306883      -0.00441503      -0.00146801 </v>
   <v>      -0.00466509      -0.00533252      -0.00495221 </v>
   <v>      -0.00258588      -0.00445118      -0.00249008 </v>
   <v>      -0.00400666      -0.00298961       0.00264600 </v>
   <v>      -0.00300788      -0.00411468       0.00448339 </v>
   <v>      -0.00174510      -0.00315336      -0.00556665 </v>
   <v>      -0.00035630       0.00251059      -0.01141681 </v>
   <v>      -0.00360410      -0.00615314      -0.01602240 </v>
   <v>      -0.00360457      -0.00364368      -0.00215295 </v>
   <v>      -0.00307698      -0.00382782      -0.00060348 </v>
   <v>      -0.00256050      -0.00519452      -0.00284438 </v>
   <v>       0.00748203      -0.00210508      -0.00717210 </v>
   <v>      -0.00527527      -0.02005620      -0.03573113 </v>
   <v>      -0.00522255      -0.00328905      -0.00413118 </v>
   <v>      -0.00279878      -0.00455889       0.00349520 </v>
   <v>      -0.00336043      -0.00530667       0.00510432 </v>
   <v>      -0.00252524      -0.01058562      -0.00635884 </v>
   <v>      -0.01105621      -0.00335460      -0.01247456 </v>
   <v>      -0.00370408      -0.00247931       0.00192313 </v>
   <v>      -0.00573284      -0.00614388       0.01019677 </v>
   <v>      -0.00308506      -0.00657213       0.00629162 </v>
   <v>      -0.00364640      -0.00714936       0.00002814 </v>
   <v>      -0.00279174      -0.00543976      -0.00087071 </v>
   <v>      -0.00381927      -0.00241228       0.00498947 </v>
   <v>      -0.00430594      -0.00506398       0.00938256 </v>
   <v>      -0.00493824      -0.01465590       0.00131918 </v>
   <v>      -0.00132387      -0.00899292       0.00112420 </v>
   <v>      -0.00038074      -0.00489040       0.00008699 </v>
   <v>      -0.00406957      -0.00180357       0.00282512 </v>
   <v>      -0.00604072      -0.01023519       0.00393030 </v>
   <v>      -0.00341295      -0.00380778      -0.00544926 </v>
   <v>      -0.00786735      -0.00595823      -0.00953558 </v>
   <v>       0.00231397      -0.00664173      -0.00680475 </v>
   <v>      -0.00373740      -0.00356960       0.00012860 </v>
   <v>      -0.00470380      -0.00666031       0.00039036 </v>
   <v>       0.00086092      -0.00394117      -0.00106623 </v>
   <v>      -0.01410162      -0.00949019      -0.03001097 </v>
   <v>       0.01041707      -0.01174960      -0.02185302 </v>
   <v>      -0.00063676      -0.00401843      -0.00054360 </v>
   <v>      -0.00646134      -0.00374322      -0.00272355 </v>
   <v>      -0.00591172      -0.00633541      -0.00198657 </v>
   <v>      -0.00748764      -0.00655634      -0.01276820 </v>
   <v>      -0.00073420       0.00382456      -0.01025826 </v>
   <v>      -0.00203770      -0.00327314       0.00735465 </v>
   <v>      -0.00546540      -0.00204986       0.00736920 </v>
   <v>      -0.00535293      -0.00579101       0.00346686 </v>
   <v>      -0.00372880      -0.00360089      -0.00230616 </v>
   <v>      -0.00167307       0.00250225      -0.00504348 </v>
   <v>      -0.00548527       0.00295072       0.00742638 </v>
   <v>      -0.00502533      -0.00415383       0.00659836 </v>
   <v>      -0.00230978      -0.00169464       0.00029121 </v>
   <v>      -0.00420447      -0.00509474      -0.00384644 </v>
   <v>      -0.00580166      -0.00560157       0.00007309 </v>
   <v>      -0.00533888      -0.00204033       0.0064  <energy>
   <i name="e_fr_energy">   -402.29800983 </i>
   <i name="e_wo_entrp">   -402.30632427 </i>
   <i name="e_0_energy">   -402.30078131 </i>
  </energy>
  <time name="totalsc">  924.65  925.82</time>
 </calculation>
   -0.00134556      -0.00610822 </v>
   <v>      -0.00398783      -0.00229903       0.00003965 </v>
   <v>       0.00131727       0.00070638      -0.0025  <energy>
   <i name="e_fr_energy">    <i name="e_fr_ener   <i name="e_wo_entrp">     <i name="e_wo_ent   <i name="e_0_energy">     <i name="e_0_ener  </energy>
  <time name="totalsc">  9  <time name="totalsc </calculation>
  <time name="totalsc">  924.15  925.71</time>
 </ca  <time name="totalsc">  9  <time name="totalsc">  9  <time name="totalsc">  924.45  925.66</time>
 </calculation>
v>      -0.00578266      -0.05051867      -0.05372229 </v>
   <v>      -0.01173687      -0.00806479       0.00748789 </v>
   <v>      -0.00384362      -0.00773858       0.00729782 </v>
   <v>       0.00079186      -0.00610942       0.00393633 </v>
   <v>      -0.00552733      -0.01407949      -0.00596780 </v>
   <v>      -0.00228516      -0.00940215      -0.00408420 </v>
   <v>      -0.00543446      -0.00686470       0.00630208 </v>
   <v>      -0.00232010      -0.00569515       0.00710431 </v>
   <v>       0.02280006       0.00629305      -0.02277303 </v>
   <v>       0.23894884       0.40049279       0.24764795 </v>
  </varray>
  <varray name="stress" >
   <v>       8.69285505      -0.06694287       0.30767946 </v>
   <v>      -0.06694287       8.73384505       0.48054570 </v>
   <v>       0.30767942       0.48054575      -0.03407394 </v>
  </varray>
  <energy>
   <i name="e_fr_energy">   -402.98476750 </i>
   <i name="e_wo_entrp">   -402.99867514 </i>
   <i name="e_0_energy">   -402.98940338 </i>
  </energy>
  <time name="totalsc">  923.52  925.53</time>
 </calculation>
 <calculation>
  <scstep>
 <calculation>
  <scstep>
