<?xml version="1.0" encoding="ISO-8859-1"?>
<modeling>
 <generator>
  <i name="program" type="string">vasp </i>
  <i name="version" type="string">5.4.4.18Apr17-6-g9f103f2a35  </i>
  <i name="subversion" type="string">(build Feb 16 2021 16:53:20) complex            parallel </i>
  <i name="platform" type="string">LinuxGNU </i>
  <i name="date" type="string">2021 02 16 </i>
  <i name="time" type="string">17:46:40 </i>
 </generator>
 <incar>
  <i type="int" name="ISTART">     0</i>
  <i type="string" name="PREC">accurate</i>
  <i type="string" name="ALGO"> NORMAL</i>
  <i type="int" name="ISPIN">     2</i>
  <i type="int" name="NELM">   100</i>
  <i type="int" name="NELMDL">   -10</i>
  <i type="int" name="IBRION">     2</i>
  <i type="int" name="NFREE">    10</i>
  <i name="EDIFF">      0.00000010</i>
  <i name="EDIFFG">     -0.01000000</i>
  <i type="int" name="NSW">   200</i>
  <i type="int" name="ISIF">     2</i>
  <i type="int" name="ISYM">     2</i>
  <i name="ENCUT">    500.00000000</i>
  <i name="POTIM">      0.12500000</i>
  <i name="NELECT">    659.00000000</i>
  <i type="string" name="LREAL"> AUTO</i>
  <v name="ROPT">     -0.00020000     -0.00020000     -0.00020000      0.00000000</v>
  <i type="logical" name="LPLANE"> T  </i>
  <i type="int" name="ISMEAR">     0</i>
  <i name="SIGMA">      0.05000000</i>
  <i type="int" name="NWRITE">     1</i>
  <i type="logical" name="LWAVE"> F  </i>
  <i type="logical" name="LCHARG"> T  </i>
  <i type="logical" name="LVTOT"> F  </i>
  <v type="int" name="KPOINT_BSE">    -1     0     0     0</v>
  <i type="int" name="NELM">   100</i>
  <i type="string" name="GGA"> MK</i>
  <i type="int" name="VOSKOWN">     1</i>
  <i name="PARAM1">      0.12340000</i>
  <i name="PARAM2">      1.00000000</i>
  <i type="logical" name="LUSE_VDW"> T  </i>
  <i name="AGGAC">      0.00000000</i>
 </incar>
 <structure name="primitive_cell" >
  <crystal>
   <varray name="basis" >
    <v>      15.62500000       0.00000000       0.00000000 </v>
    <v>      -7.81250000      13.53164693       0.00000000 </v>
    <v>       0.00000000       0.00000000      20.00000000 </v>
   </varray>
   <i name="volume">   4228.63966688 </i>
   <varray name="rec_basis" >
    <v>       0.06400000       0.03695042      -0.00000000 </v>
    <v>       0.00000000       0.07390083       0.00000000 </v>
    <v>       0.00000000      -0.00000000       0.05000000 </v>
   </varray>
  </crystal>
  <varray name="positions" >
   <v>       0.06554800       0.13197288       0.18701292 </v>
   <v>       0.13587821       0.26793909       0.11049310 </v>
   <v>       0.13275046       0.06550091       0.26563548 </v>
   <v>      -0.06913629       0.06467595       0.26489354 </v>
   <v>      -0.06586556       0.06721178       0.10646984 </v>
   <v>       0.13365667       0.06731332       0.10736266 </v>
   <v>       0.12128012       0.26064005       0.26991347 </v>
   <v>      -0.13366423      -0.06695705       0.18497794 </v>
   <v>       0.06657268      -0.06685463       0.18572578 </v>
   <v>      -0.13360038       0.13319980       0.18539957 </v>
   <v>       0.26642488       0.13197288       0.18701292 </v>
   <v>       0.26666666       0.33333332       0.19060606 </v>
   <v>       0.06554800       0.33357510       0.18701292 </v>
   <v>      -0.06720329      -0.13376967       0.26427991 </v>
   <v>       0.33206090       0.26793909       0.11049310 </v>
   <v>      -0.06625624      -0.13313685       0.10608299 </v>
   <v>      -0.06586556       0.26692264       0.10646984 </v>
   <v>      -0.06913629       0.26618774       0.26489354 </v>
   <v>       0.33935995       0.26064005       0.26991347 </v>
   <v>       0.26666666       0.33333332       0.32845921 </v>
   <v>      -0.26680320      -0.13319680       0.26396704 </v>
   <v>       0.33206090       0.46412179       0.11049310 </v>
   <v>      -0.26726342       0.06636828       0.26401756 </v>
   <v>       0.13343363      -0.13376967       0.26427991 </v>
   <v>      -0.26663503      -0.13336497       0.10563812 </v>
   <v>       0.13311940      -0.13313685       0.10608299 </v>
   <v>      -0.26631495       0.06684252       0.10579654 </v>
   <v>       0.33307735       0.06721178       0.10646984 </v>
   <v>       0.13365667       0.46634333       0.10736266 </v>
   <v>       0.33381226       0.06467595       0.26489354 </v>
   <v>       0.13275046       0.46724953       0.26563548 </v>
   <v>       0.33935995       0.47871988       0.26991347 </v>
   <v>      -0.13331083      -0.26668919       0.18504086 </v>
   <v>      -0.33334906      -0.06665096       0.18473282 </v>
   <v>       0.26670718      -0.06695705       0.18497794 </v>
   <v>      -0.13366423       0.33329280       0.18497794 </v>
   <v>       0.26642488      -0.46554802       0.18701292 </v>
   <v>       0.46802710       0.33357510       0.18701292 </v>
   <v>      -0.33304297      -0.26633579       0.18497794 </v>
   <v>       0.06662164      -0.26668919       0.18504086 </v>
   <v>      -0.33334906       0.13330188       0.18473282 </v>
   <v>       0.46680018       0.13319980       0.18539957 </v>
   <v>       0.06657268      -0.46657271       0.18572578 </v>
   <v>       0.46802710      -0.46554802       0.18701292 </v>
   <v>      -0.26623033      -0.33279671       0.26427991 </v>
   <v>      -0.06666666      -0.33333334       0.26408694 </v>
   <v>      -0.26680320       0.26639358       0.26396704 </v>
   <v>      -0.06666666      -0.33333334       0.10591188 </v>
   <v>      -0.26686315      -0.33374377       0.10608299 </v>
   <v>      -0.06720329       0.46656636       0.26427991 </v>
   <v>      -0.46721178       0.26692264       0.10646984 </v>
   <v>      -0.26663503       0.26672992       0.10563812 </v>
   <v>      -0.46731332       0.46634333       0.10736266 </v>
   <v>      -0.06625624       0.46688060       0.10608299 </v>
   <v>      -0.46550091       0.46724953       0.26563548 </v>
   <v>      -0.46467595       0.26618774       0.26489354 </v>
   <v>      -0.46636829      -0.13273659       0.26401756 </v>
   <v>       0.33360642      -0.13319680       0.26396704 </v>
   <v>      -0.46684252      -0.13368505       0.10579654 </v>
   <v>       0.33327008      -0.13336497       0.10563812 </v>
   <v>       0.33307735      -0.33413444       0.10646984 </v>
   <v>       0.33381226      -0.33086371       0.26489354 </v>
   <v>      -0.46467595      -0.33086371       0.26489354 </v>
   <v>       0.13343363      -0.33279671       0.26427991 </v>
   <v>      -0.46636829       0.06636828       0.26401756 </v>
   <v>      -0.46721178      -0.33413444       0.10646984 </v>
   <v>       0.13311940      -0.33374377       0.10608299 </v>
   <v>      -0.46684252       0.06684252       0.10579654 </v>
   <v>      -0.33314539      -0.46657271       0.18572578 </v>
   <v>       0.46680018      -0.26639964       0.18539957 </v>
   <v>      -0.13331083      -0.46662166       0.18504086 </v>
   <v>       0.46669809      -0.06665096       0.18473282 </v>
   <v>       0.26670718      -0.26633579       0.18497794 </v>
   <v>      -0.33304297       0.33329280       0.18497794 </v>
   <v>      -0.26623033       0.46656636       0.26427991 </v>
   <v>      -0.26686315       0.46688060       0.10608299 </v>
  </varray>
 </structure>
 <varray name="primitive_index" >
  <v type="int" >        1 </v>
  <v type="int" >       31 </v>
  <v type="int" >       51 </v>
  <v type="int" >       55 </v>
  <v type="int" >       30 </v>
  <v type="int" >       26 </v>
  <v type="int" >       56 </v>
  <v type="int" >       25 </v>
  <v type="int" >       21 </v>
  <v type="int" >        5 </v>
  <v type="int" >        2 </v>
  <v type="int" >        7 </v>
  <v type="int" >        6 </v>
  <v type="int" >       75 </v>
  <v type="int" >       32 </v>
  <v type="int" >       50 </v>
  <v type="int" >       35 </v>
  <v type="int" >       60 </v>
  <v type="int" >       57 </v>
  <v type="int" >       76 </v>
  <v type="int" >       74 </v>
  <v type="int" >       37 </v>
  <v type="int" >       54 </v>
  <v type="int" >       71 </v>
  <v type="int" >       49 </v>
  <v type="int" >       46 </v>
  <v type="int" >       29 </v>
  <v type="int" >       27 </v>
  <v type="int" >       36 </v>
  <v type="int" >       52 </v>
  <v type="int" >       61 </v>
  <v type="int" >       62 </v>
  <v type="int" >       20 </v>
  <v type="int" >       24 </v>
  <v type="int" >       22 </v>
  <v type="int" >       10 </v>
  <v type="int" >       12 </v>
  <v type="int" >        8 </v>
  <v type="int" >       19 </v>
  <v type="int" >       16 </v>
  <v type="int" >        4 </v>
  <v type="int" >        3 </v>
  <v type="int" >       11 </v>
  <v type="int" >       13 </v>
  <v type="int" >       69 </v>
  <v type="int" >       70 </v>
  <v type="int" >       59 </v>
  <v type="int" >       45 </v>
  <v type="int" >       44 </v>
  <v type="int" >       65 </v>
  <v type="int" >       33 </v>
  <v type="int" >       34 </v>
  <v type="int" >       38 </v>
  <v type="int" >       40 </v>
  <v type="int" >       63 </v>
  <v type="int" >       58 </v>
  <v type="int" >       73 </v>
  <v type="int" >       72 </v>
  <v type="int" >       48 </v>
  <v type="int" >       47 </v>
  <v type="int" >       42 </v>
  <v type="int" >       67 </v>
  <v type="int" >       68 </v>
  <v type="int" >       66 </v>
  <v type="int" >       53 </v>
  <v type="int" >       43 </v>
  <v type="int" >       41 </v>
  <v type="int" >       28 </v>
  <v type="int" >       14 </v>
  <v type="int" >       18 </v>
  <v type="int" >       15 </v>
  <v type="int" >       23 </v>
  <v type="int" >       17 </v>
  <v type="int" >        9 </v>
  <v type="int" >       64 </v>
  <v type="int" >       39 </v>
 </varray>
 <kpoints>
  <generation param="Monkhorst-Pack">
   <v type="int" name="divisions">       3        3        1 </v>
   <v name="usershift">      0.00000000       0.00000000       0.00000000 </v>
   <v name="genvec1">      0.33333333       0.00000000       0.00000000 </v>
   <v name="genvec2">      0.00000000       0.33333333       0.00000000 </v>
   <v name="genvec3">      0.00000000       0.00000000       1.00000000 </v>
   <v name="shift">      0.00000000       0.00000000       0.00000000 </v>
  </generation>
  <varray name="kpointlist" >
   <v>       0.00000000       0.00000000       0.00000000 </v>
   <v>       0.33333333       0.00000000       0.00000000 </v>
   <v>       0.33333333       0.33333333       0.00000000 </v>
  </varray>
  <varray name="weights" >
   <v>       0.11111111 </v>
   <v>       0.66666667 </v>
   <v>       0.22222222 </v>
  </varray>
 </kpoints>
 <parameters>
  <separator name="general" >
   <i type="string" name="SYSTEM">unknown system</i>
   <i type="logical" name="LCOMPAT"> F  </i>
  </separator>
  <separator name="electronic" >
   <i type="string" name="PREC">accura</i>
   <i name="ENMAX">    500.00000000</i>
   <i name="ENAUG">    446.01400000</i>
   <i name="EDIFF">      0.00000010</i>
   <i type="int" name="IALGO">    38</i>
   <i type="int" name="IWAVPR">    11</i>
   <i type="int" name="NBANDS">   436</i>
   <i name="NELECT">    659.00000000</i>
   <i type="int" name="TURBO">     0</i>
   <i type="int" name="IRESTART">     0</i>
   <i type="int" name="NREBOOT">     0</i>
   <i type="int" name="NMIN">     0</i>
   <i name="EREF">      0.00000000</i>
   <separator name="electronic smearing" >
    <i type="int" name="ISMEAR">     0</i>
    <i name="SIGMA">      0.05000000</i>
    <i name="KSPACING">      0.50000000</i>
    <i type="logical" name="KGAMMA"> T  </i>
   </separator>
   <separator name="electronic projectors" >
    <i type="logical" name="LREAL"> T  </i>
    <v name="ROPT">     -0.00020000     -0.00020000     -0.00020000</v>
    <i type="int" name="LMAXPAW">  -100</i>
    <i type="int" name="LMAXMIX">     2</i>
    <i type="logical" name="NLSPLINE"> F  </i>
   </separator>
   <separator name="electronic startup" >
    <i type="int" name="ISTART">     0</i>
    <i type="int" name="ICHARG">     2</i>
    <i type="int" name="INIWAV">     1</i>
   </separator>
   <separator name="electronic spin" >
    <i type="int" name="ISPIN">     2</i>
    <i type="logical" name="LNONCOLLINEAR"> F  </i>
    <v name="MAGMOM">      1.00000000      1.00000000      1.00000000      1.00000000      1.00000000      1.00000000      1.00000000      1.00000000      1.00000000      1.00000000      1.00000000      1.00000000      1.00000000      1.00000000      1.00000000      1.00000000      1.00000000      1.00000000      1.00000000      1.00000000
      1.00000000      1.00000000      1.00000000      1.00000000      1.00000000      1.00000000      1.00000000      1.00000000      1.00000000      1.00000000      1.00000000      1.00000000      1.00000000      1.00000000      1.00000000      1.00000000      1.00000000      1.00000000      1.00000000      1.00000000
      1.00000000      1.00000000      1.00000000      1.00000000      1.00000000      1.00000000      1.00000000      1.00000000      1.00000000      1.00000000      1.00000000      1.00000000      1.00000000      1.00000000      1.00000000      1.00000000      1.00000000      1.00000000      1.00000000      1.00000000
      1.00000000      1.00000000      1.00000000      1.00000000      1.00000000      1.00000000      1.00000000      1.00000000      1.00000000      1.00000000      1.00000000      1.00000000      1.00000000      1.00000000      1.00000000      1.00000000</v>
    <i name="NUPDOWN">     -1.00000000</i>
    <i type="logical" name="LSORBIT"> F  </i>
    <v name="SAXIS">      0.00000000      0.00000000      1.00000000</v>
    <i type="logical" name="LSPIRAL"> F  </i>
    <v name="QSPIRAL">      0.00000000      0.00000000      0.00000000</v>
    <i type="logical" name="LZEROZ"> F  </i>
   </separator>
   <separator name="electronic exchange-correlation" >
    <i type="logical" name="LASPH"> F  </i>
    <i type="logical" name="LMETAGGA"> F  </i>
   </separator>
   <separator name="electronic convergence" >
    <i type="int" name="NELM">   100</i>
    <i type="int" name="NELMDL">   -10</i>
    <i type="int" name="NELMIN">     2</i>
    <i name="ENINI">    500.00000000</i>
    <separator name="electronic convergence detail" >
     <i type="logical" name="LDIAG"> T  </i>
     <i type="logical" name="LSUBROT"> F  </i>
     <i name="WEIMIN">      0.00100000</i>
     <i name="EBREAK">      0.00000000</i>
     <i name="DEPER">      0.30000000</i>
     <i type="int" name="NRMM">     4</i>
     <i name="TIME">      0.40000000</i>
    </separator>
   </separator>
   <separator name="electronic mixer" >
    <i name="AMIX">      0.40000000</i>
    <i name="BMIX">      1.00000000</i>
    <i name="AMIN">      0.10000000</i>
    <i name="AMIX_MAG">      1.60000000</i>
    <i name="BMIX_MAG">      1.00000000</i>
    <separator name="electronic mixer details" >
     <i type="int" name="IMIX">     4</i>
     <i type="logical" name="MIXFIRST"> F  </i>
     <i type="int" name="MAXMIX">   -45</i>
     <i name="WC">    100.00000000</i>
     <i type="int" name="INIMIX">     1</i>
     <i type="int" name="MIXPRE">     1</i>
     <i type="int" name="MREMOVE">     5</i>
    </separator>
   </separator>
   <separator name="electronic dipolcorrection" >
    <i type="logical" name="LDIPOL"> F  </i>
    <i type="logical" name="LMONO"> F  </i>
    <i type="int" name="IDIPOL">     0</i>
    <i name="EPSILON">      1.00000000</i>
    <v name="DIPOL">   -100.00000000   -100.00000000   -100.00000000</v>
    <i name="EFIELD">      0.00000000</i>
   </separator>
  </separator>
  <separator name="grids" >
   <i type="int" name="NGX">   120</i>
   <i type="int" name="NGY">   120</i>
   <i type="int" name="NGZ">   150</i>
   <i type="int" name="NGXF">   240</i>
   <i type="int" name="NGYF">   240</i>
   <i type="int" name="NGZF">   300</i>
   <i type="logical" name="ADDGRID"> F  </i>
  </separator>
  <separator name="ionic" >
   <i type="int" name="NSW">   200</i>
   <i type="int" name="IBRION">     2</i>
   <i type="int" name="MDALGO">     0</i>
   <i type="int" name="ISIF">     2</i>
   <i name="PSTRESS">      0.00000000</i>
   <i name="EDIFFG">     -0.01000000</i>
   <i type="int" name="NFREE">    10</i>
   <i name="POTIM">      0.12500000</i>
   <i name="SMASS">     -3.00000000</i>
   <i name="SCALEE">      1.00000000</i>
  </separator>
  <separator name="ionic md" >
   <i name="TEBEG">      0.00010000</i>
   <i name="TEEND">      0.00010000</i>
   <i type="int" name="NBLOCK">     1</i>
   <i type="int" name="KBLOCK">   200</i>
   <i type="int" name="NPACO">   256</i>
   <i name="APACO">     16.00000000</i>
  </separator>
  <separator name="symmetry" >
   <i type="int" name="ISYM">     2</i>
   <i name="SYMPREC">      0.00001000</i>
  </separator>
  <separator name="dos" >
   <i type="int" name="LORBIT">     0</i>
   <v name="RWIGS">     -1.00000000     -1.00000000     -1.00000000</v>
   <i type="int" name="NEDOS">   301</i>
   <i name="EMIN">     10.00000000</i>
   <i name="EMAX">    -10.00000000</i>
   <i name="EFERMI">      0.00000000</i>
  </separator>
  <separator name="writing" >
   <i type="int" name="NWRITE">     1</i>
   <i type="logical" name="LWAVE"> F  </i>
   <i type="logical" name="LDOWNSAMPLE"> F  </i>
   <i type="logical" name="LCHARG"> T  </i>
   <i type="logical" name="LPARD"> F  </i>
   <i type="logical" name="LVTOT"> F  </i>
   <i type="logical" name="LVHAR"> F  </i>
   <i type="logical" name="LELF"> F  </i>
   <i type="logical" name="LOPTICS"> F  </i>
   <v name="STM">      0.00000000      0.00000000      0.00000000      0.00000000      0.00000000      0.00000000      0.00000000</v>
  </separator>
  <separator name="performance" >
   <i type="int" name="NPAR">     4</i>
   <i type="int" name="NSIM">     4</i>
   <i type="int" name="NBLK">    -1</i>
   <i type="logical" name="LPLANE"> T  </i>
   <i type="logical" name="LSCALAPACK"> T  </i>
   <i type="logical" name="LSCAAWARE"> F  </i>
   <i type="logical" name="LSCALU"> F  </i>
   <i type="logical" name="LASYNC"> F  </i>
   <i type="logical" name="LORBITALREAL"> F  </i>
  </separator>
  <separator name="miscellaneous" >
   <i type="int" name="IDIOT">     3</i>
   <i type="int" name="ISPECIAL">     0</i>
   <i type="logical" name="LMUSIC"> F  </i>
   <v name="POMASS">     95.94000000     32.06600000    195.08000000</v>
   <v name="DARWINR">      0.00000000      0.00000000      0.00000000</v>
   <v name="DARWINV">      1.00000000      1.00000000      1.00000000</v>
   <i type="logical" name="LCORR"> T  </i>
  </separator>
  <i type="logical" name="GGA_COMPAT"> T  </i>
  <i type="logical" name="LBERRY"> F  </i>
  <i type="int" name="ICORELEVEL">     0</i>
  <i type="logical" name="LDAU"> F  </i>
  <i type="int" name="I_CONSTRAINED_M">     0</i>
  <separator name="electronic exchange-correlation" >
   <i type="string" name="GGA">MK</i>
   <i type="int" name="VOSKOWN">     1</i>
   <i type="logical" name="LHFCALC"> F  </i>
   <i type="string" name="PRECFOCK"></i>
   <i type="logical" name="LSYMGRAD"> F  </i>
   <i type="logical" name="LHFONE"> F  </i>
   <i type="logical" name="LRHFCALC"> F  </i>
   <i type="logical" name="LTHOMAS"> F  </i>
   <i type="logical" name="LMODELHF"> F  </i>
   <i name="ENCUT4O">     -1.00000000</i>
   <i type="int" name="EXXOEP">     0</i>
   <i type="int" name="FOURORBIT">     0</i>
   <i name="AEXX">      0.00000000</i>
   <i name="HFALPHA">      0.00000000</i>
   <i name="MCALPHA">      0.00000000</i>
   <i name="ALDAX">      1.00000000</i>
   <i name="AGGAX">      1.00000000</i>
   <i name="ALDAC">      1.00000000</i>
   <i name="AGGAC">      0.00000000</i>
   <i type="int" name="NKREDX">     1</i>
   <i type="int" name="NKREDY">     1</i>
   <i type="int" name="NKREDZ">     1</i>
   <i type="logical" name="SHIFTRED"> F  </i>
   <i type="logical" name="ODDONLY"> F  </i>
   <i type="logical" name="EVENONLY"> F  </i>
   <i type="int" name="LMAXFOCK">     0</i>
   <i type="int" name="NMAXFOCKAE">     0</i>
   <i type="logical" name="LFOCKAEDFT"> F  </i>
   <i name="HFSCREEN">      0.00000000</i>
   <i name="HFSCREENC">      0.00000000</i>
   <i type="int" name="NBANDSGWLOW">     0</i>
  </separator>
  <separator name="vdW DFT" >
   <i type="logical" name="LUSE_VDW"> T  </i>
   <i name="Zab_VDW">     -0.84910000</i>
   <i name="PARAM1">      0.12340000</i>
   <i name="PARAM2">      1.00000000</i>
   <i name="PARAM3">      0.00000000</i>
  </separator>
  <separator name="model GW" >
   <i type="int" name="MODEL_GW">     0</i>
   <i name="MODEL_EPS0">     33.38399737</i>
   <i name="MODEL_ALPHA">      1.00000000</i>
  </separator>
  <separator name="linear response parameters" >
   <i type="logical" name="LEPSILON"> F  </i>
   <i type="logical" name="LRPA"> F  </i>
   <i type="logical" name="LNABLA"> F  </i>
   <i type="logical" name="LVEL"> F  </i>
   <i type="int" name="KINTER">     0</i>
   <i name="CSHIFT">      0.10000000</i>
   <i name="OMEGAMAX">     -1.00000000</i>
   <i name="DEG_THRESHOLD">      0.00200000</i>
   <i name="RTIME">     -0.10000000</i>
   <i name="WPLASMAI">      0.00000000</i>
   <v name="DFIELD">      0.00000000      0.00000000      0.00000000</v>
   <v name="WPLASMA">      0.00000000      0.00000000      0.00000000      0.00000000      0.00000000      0.00000000      0.00000000      0.00000000      0.00000000</v>
  </separator>
  <separator name="orbital magnetization" >
   <i type="logical" name="NUCIND"> F  </i>
   <v name="MAGPOS">      0.00000000      0.00000000      0.00000000</v>
   <i type="logical" name="LNICSALL"> T  </i>
   <i type="logical" name="ORBITALMAG"> F  </i>
   <i type="logical" name="LMAGBLOCH"> F  </i>
   <i type="logical" name="LCHIMAG"> F  </i>
   <i type="logical" name="LGAUGE"> T  </i>
   <i type="int" name="MAGATOM">     0</i>
   <v name="MAGDIPOL">      0.00000000      0.00000000      0.00000000</v>
   <v name="AVECCONST">      0.00000000      0.00000000      0.00000000</v>
  </separator>
  <separator name="response functions" >
   <i type="logical" name="LADDER"> F  </i>
   <i type="logical" name="LRPAFORCE"> F  </i>
   <i type="logical" name="LFXC"> F  </i>
   <i type="logical" name="LHARTREE"> T  </i>
   <i type="int" name="IBSE">     0</i>
   <v type="int" name="KPOINT">    -1     0     0     0</v>
   <i type="logical" name="LTCTE"> F  </i>
   <i type="logical" name="LTETE"> F  </i>
   <i type="logical" name="LTRIPLET"> F  </i>
   <i type="logical" name="LFXCEPS"> F  </i>
   <i type="logical" name="LFXHEG"> F  </i>
   <i type="int" name="NATURALO">     2</i>
   <i type="logical" name="L2ORDER"> F  </i>
   <i type="logical" name="LMP2LT"> F  </i>
   <i type="logical" name="LUSEW"> F  </i>
   <i name="ENCUTGW">     -2.00000000</i>
   <i name="ENCUTGWSOFT">     -2.00000000</i>
   <i name="ENCUTLF">     -1.00000000</i>
   <i type="int" name="LMAXMP2">    -1</i>
   <i name="SCISSOR">      0.00000000</i>
   <i type="int" name="NOMEGA">     0</i>
   <i type="int" name="NOMEGAR">     0</i>
   <i type="int" name="NBANDSGW">    -1</i>
   <i type="int" name="NBANDSO">    -1</i>
   <i type="int" name="NBANDSV">    -1</i>
   <i type="int" name="NELM">   100</i>
   <i type="int" name="NELMHF">     1</i>
   <i type="int" name="DIM">     3</i>
   <i type="int" name="ANTIRES">     0</i>
   <i name="OMEGAMAX">    -30.00000000</i>
   <i name="OMEGAMIN">    -30.00000000</i>
   <i name="OMEGATL">   -200.00000000</i>
   <i type="int" name="OMEGAGRID">   140</i>
   <i name="CSHIFT">     -0.10000000</i>
   <i type="logical" name="SELFENERGY"> F  </i>
   <i type="logical" name="LSPECTRAL"> F  </i>
   <i type="logical" name="LSPECTRALGW"> F  </i>
   <i type="logical" name="LSINGLES"> F  </i>
   <i type="logical" name="LFERMIGW"> F  </i>
   <i type="logical" name="ODDONLYGW"> F  </i>
   <i type="logical" name="EVENONLYGW"> F  </i>
   <i type="int" name="NKREDLFX">     1</i>
   <i type="int" name="NKREDLFY">     1</i>
   <i type="int" name="NKREDLFZ">     1</i>
   <i type="int" name="MAXMEM">  2800</i>
   <i type="int" name="TELESCOPE">     0</i>
   <i type="int" name="TAUPAR">     1</i>
   <i type="int" name="OMEGAPAR">    -1</i>
   <i name="LAMBDA">      1.00000000</i>
  </separator>
  <separator name="External order field" >
   <i name="OFIELD_KAPPA">      0.00000000</i>
   <v name="OFIELD_K">      0.00000000      0.00000000      0.00000000</v>
   <i name="OFIELD_Q6_NEAR">      0.00000000</i>
   <i name="OFIELD_Q6_FAR">      0.00000000</i>
   <i name="OFIELD_A">      0.00000000</i>
  </separator>
 </parameters>
 <atominfo>
  <atoms>      76 </atoms>
  <types>       3 </types>
  <array name="atoms" >
   <dimension dim="1">ion</dimension>
   <field type="string">element</field>
   <field type="int">atomtype</field>
   <set>
    <rc><c>Mo</c><c>   1</c></rc>
    <rc><c>Mo</c><c>   1</c></rc>
    <rc><c>Mo</c><c>   1</c></rc>
    <rc><c>Mo</c><c>   1</c></rc>
    <rc><c>Mo</c><c>   1</c></rc>
    <rc><c>Mo</c><c>   1</c></rc>
    <rc><c>Mo</c><c>   1</c></rc>
    <rc><c>Mo</c><c>   1</c></rc>
    <rc><c>Mo</c><c>   1</c></rc>
    <rc><c>Mo</c><c>   1</c></rc>
    <rc><c>Mo</c><c>   1</c></rc>
    <rc><c>Mo</c><c>   1</c></rc>
    <rc><c>Mo</c><c>   1</c></rc>
    <rc><c>Mo</c><c>   1</c></rc>
    <rc><c>Mo</c><c>   1</c></rc>
    <rc><c>Mo</c><c>   1</c></rc>
    <rc><c>Mo</c><c>   1</c></rc>
    <rc><c>Mo</c><c>   1</c></rc>
    <rc><c>Mo</c><c>   1</c></rc>
    <rc><c>Mo</c><c>   1</c></rc>
    <rc><c>Mo</c><c>   1</c></rc>
    <rc><c>Mo</c><c>   1</c></rc>
    <rc><c>Mo</c><c>   1</c></rc>
    <rc><c>Mo</c><c>   1</c></rc>
    <rc><c>Mo</c><c>   1</c></rc>
    <rc><c>S </c><c>   2</c></rc>
    <rc><c>S </c><c>   2</c></rc>
    <rc><c>S </c><c>   2</c></rc>
    <rc><c>S </c><c>   2</c></rc>
    <rc><c>S </c><c>   2</c></rc>
    <rc><c>S </c><c>   2</c></rc>
    <rc><c>S </c><c>   2</c></rc>
    <rc><c>S </c><c>   2</c></rc>
    <rc><c>S </c><c>   2</c></rc>
    <rc><c>S </c><c>   2</c></rc>
    <rc><c>S </c><c>   2</c></rc>
    <rc><c>S </c><c>   2</c></rc>
    <rc><c>S </c><c>   2</c></rc>
    <rc><c>S </c><c>   2</c></rc>
    <rc><c>S </c><c>   2</c></rc>
    <rc><c>S </c><c>   2</c></rc>
    <rc><c>S </c><c>   2</c></rc>
    <rc><c>S </c><c>   2</c></rc>
    <rc><c>S </c><c>   2</c></rc>
    <rc><c>S </c><c>   2</c></rc>
    <rc><c>S </c><c>   2</c></rc>
    <rc><c>S </c><c>   2</c></rc>
    <rc><c>S </c><c>   2</c></rc>
    <rc><c>S </c><c>   2</c></rc>
    <rc><c>S </c><c>   2</c></rc>
    <rc><c>S </c><c>   2</c></rc>
    <rc><c>S </c><c>   2</c></rc>
    <rc><c>S </c><c>   2</c></rc>
    <rc><c>S </c><c>   2</c></rc>
    <rc><c>S </c><c>   2</c></rc>
    <rc><c>S </c><c>   2</c></rc>
    <rc><c>S </c><c>   2</c></rc>
    <rc><c>S </c><c>   2</c></rc>
    <rc><c>S </c><c>   2</c></rc>
    <rc><c>S </c><c>   2</c></rc>
    <rc><c>S </c><c>   2</c></rc>
    <rc><c>S </c><c>   2</c></rc>
    <rc><c>S </c><c>   2</c></rc>
    <rc><c>S </c><c>   2</c></rc>
    <rc><c>S </c><c>   2</c></rc>
    <rc><c>S </c><c>   2</c></rc>
    <rc><c>S </c><c>   2</c></rc>
    <rc><c>S </c><c>   2</c></rc>
    <rc><c>S </c><c>   2</c></rc>
    <rc><c>S </c><c>   2</c></rc>
    <rc><c>S </c><c>   2</c></rc>
    <rc><c>S </c><c>   2</c></rc>
    <rc><c>S </c><c>   2</c></rc>
    <rc><c>S </c><c>   2</c></rc>
    <rc><c>S </c><c>   2</c></rc>
    <rc><c>Pt</c><c>   3</c></rc>
   </set>
  </array>
  <array name="atomtypes" >
   <dimension dim="1">type</dimension>
   <field type="int">atomspertype</field>
   <field type="string">element</field>
   <field>mass</field>
   <field>valence</field>
   <field type="string">pseudopotential</field>
   <set>
    <rc><c>  25</c><c>Mo</c><c>     95.94000000</c><c>     14.00000000</c><c>  PAW_PBE Mo_sv 02Feb2006               </c></rc>
    <rc><c>  50</c><c>S </c><c>     32.06600000</c><c>      6.00000000</c><c>  PAW_PBE S 06Sep2000                   </c></rc>
    <rc><c>   1</c><c>Pt</c><c>    195.08000000</c><c>     10.00000000</c><c>  PAW_PBE Pt 04Feb2005                  </c></rc>
   </set>
  </array>
 </atominfo>
 <structure name="initialpos" >
  <crystal>
   <varray name="basis" >
    <v>      15.62500000       0.00000000       0.00000000 </v>
    <v>      -7.81250000      13.53164693       0.00000000 </v>
    <v>       0.00000000       0.00000000      20.00000000 </v>
   </varray>
   <i name="volume">   4228.63966688 </i>
   <varray name="rec_basis" >
    <v>       0.06400000       0.03695042      -0.00000000 </v>
    <v>       0.00000000       0.07390083       0.00000000 </v>
    <v>       0.00000000      -0.00000000       0.05000000 </v>
   </varray>
  </crystal>
  <varray name="positions" >
   <v>       0.06554800       0.13197288       0.18701292 </v>
   <v>       0.26642488       0.13197288       0.18701292 </v>
   <v>       0.46680018       0.13319980       0.18539957 </v>
   <v>       0.66665094       0.13330188       0.18473282 </v>
   <v>       0.86639962       0.13319980       0.18539957 </v>
   <v>       0.06554800       0.33357510       0.18701292 </v>
   <v>       0.26666666       0.33333332       0.19060606 </v>
   <v>       0.46802710       0.33357510       0.18701292 </v>
   <v>       0.66695703       0.33329280       0.18497794 </v>
   <v>       0.86633577       0.33329280       0.18497794 </v>
   <v>       0.06657268       0.53342729       0.18572578 </v>
   <v>       0.26642488       0.53445198       0.18701292 </v>
   <v>       0.46802710       0.53445198       0.18701292 </v>
   <v>       0.66685461       0.53342729       0.18572578 </v>
   <v>       0.86668917       0.53337834       0.18504086 </v>
   <v>       0.06662164       0.73331081       0.18504086 </v>
   <v>       0.26670718       0.73366421       0.18497794 </v>
   <v>       0.46680018       0.73360036       0.18539957 </v>
   <v>       0.66695703       0.73366421       0.18497794 </v>
   <v>       0.86668917       0.73331081       0.18504086 </v>
   <v>       0.06657268       0.93314537       0.18572578 </v>
   <v>       0.26670718       0.93304295       0.18497794 </v>
   <v>       0.46669809       0.93334904       0.18473282 </v>
   <v>       0.66665094       0.93334904       0.18473282 </v>
   <v>       0.86633577       0.93304295       0.18497794 </v>
   <v>       0.13365667       0.06731332       0.10736266 </v>
   <v>       0.33307735       0.06721178       0.10646984 </v>
   <v>       0.53315748       0.06684252       0.10579654 </v>
   <v>       0.73368505       0.06684252       0.10579654 </v>
   <v>       0.93413444       0.06721178       0.10646984 </v>
   <v>       0.13587821       0.26793909       0.11049310 </v>
   <v>       0.33206090       0.26793909       0.11049310 </v>
   <v>       0.53278822       0.26692264       0.10646984 </v>
   <v>       0.73336497       0.26672992       0.10563812 </v>
   <v>       0.93413444       0.26692264       0.10646984 </v>
   <v>       0.13365667       0.46634333       0.10736266 </v>
   <v>       0.33206090       0.46412179       0.11049310 </v>
   <v>       0.53268668       0.46634333       0.10736266 </v>
   <v>       0.73313685       0.46688060       0.10608299 </v>
   <v>       0.93374376       0.46688060       0.10608299 </v>
   <v>       0.13311940       0.66625623       0.10608299 </v>
   <v>       0.33307735       0.66586556       0.10646984 </v>
   <v>       0.53278822       0.66586556       0.10646984 </v>
   <v>       0.73313685       0.66625623       0.10608299 </v>
   <v>       0.93333334       0.66666666       0.10591188 </v>
   <v>       0.13311940       0.86686315       0.10608299 </v>
   <v>       0.33327008       0.86663503       0.10563812 </v>
   <v>       0.53315748       0.86631495       0.10579654 </v>
   <v>       0.73336497       0.86663503       0.10563812 </v>
   <v>       0.93374376       0.86686315       0.10608299 </v>
   <v>       0.13275046       0.06550091       0.26563548 </v>
   <v>       0.33381226       0.06467595       0.26489354 </v>
   <v>       0.53363171       0.06636828       0.26401756 </v>
   <v>       0.73273658       0.06636828       0.26401756 </v>
   <v>       0.93086371       0.06467595       0.26489354 </v>
   <v>       0.12128012       0.26064005       0.26991347 </v>
   <v>       0.33935995       0.26064005       0.26991347 </v>
   <v>       0.53532405       0.26618774       0.26489354 </v>
   <v>       0.73319680       0.26639358       0.26396704 </v>
   <v>       0.93086371       0.26618774       0.26489354 </v>
   <v>       0.13275046       0.46724953       0.26563548 </v>
   <v>       0.33935995       0.47871988       0.26991347 </v>
   <v>       0.53449909       0.46724953       0.26563548 </v>
   <v>       0.73376967       0.46656636       0.26427991 </v>
   <v>       0.93279671       0.46656636       0.26427991 </v>
   <v>       0.13343363       0.66720329       0.26427991 </v>
   <v>       0.33381226       0.66913629       0.26489354 </v>
   <v>       0.53532405       0.66913629       0.26489354 </v>
   <v>       0.73376967       0.66720329       0.26427991 </v>
   <v>       0.93333334       0.66666666       0.26408694 </v>
   <v>       0.13343363       0.86623033       0.26427991 </v>
   <v>       0.33360642       0.86680320       0.26396704 </v>
   <v>       0.53363171       0.86726341       0.26401756 </v>
   <v>       0.73319680       0.86680320       0.26396704 </v>
   <v>       0.93279671       0.86623033       0.26427991 </v>
   <v>       0.26666666       0.33333332       0.32845921 </v>
  </varray>
 </structure>
 <calculation>
  <scstep>
   <time name="dav">   60.87   61.02</time>
   <time name="total">  113.31  113.60</time>
   <energy>
    <i name="alphaZ">    724.79310432 </i>
    <i name="ewald"> 146151.60506348 </i>
    <i name="hartreedc">-199627.67326686 </i>
    <i name="XCdc">   2299.73145392 </i>
    <i name="pawpsdc">  49050.56298338 </i>
    <i name="pawaedc"> -48366.95294024 </i>
    <i name="eentropy">     -0.05191555 </i>
    <i name="bandstr">  -5864.90390971 </i>
    <i name="atom">  61277.49441763 </i>
    <i name="e_fr_energy">   5644.60499038 </i>
    <i name="e_wo_entrp">   5644.65690594 </i>
    <i name="e_0_energy">   5644.63094816 </i>
   </energy>
  </scstep>
  <scstep>
   <time name="dav">   66.20   66.37</time>
   <time name="total">   66.21   66.37</time>
   <energy>
    <i name="e_fr_energy">    150.58904294 </i>
    <i name="e_wo_entrp">    150.59719629 </i>
    <i name="e_0_energy">    150.59311961 </i>
   </energy>
  </scstep>
  <scstep>
   <time name="dav">   62.11   62.26</time>
   <time name="total">   62.11   62.26</time>
   <energy>
    <i name="e_fr_energy">   -401.81130417 </i>
    <i name="e_wo_entrp">   -401.78415714 </i>
    <i name="e_0_energy">   -401.79773065 </i>
   </energy>
  </scstep>
  <scstep>
   <time name="dav">   63.53   63.70</time>
   <time name="total">   63.53   63.70</time>
   <energy>
    <i name="e_fr_energy">   -419.71014793 </i>
    <i name="e_wo_entrp">   -419.68211175 </i>
    <i name="e_0_energy">   -419.69612984 </i>
   </energy>
  </scstep>
  <scstep>
   <time name="dav">   66.23   66.43</time>
   <time name="total">   66.23   66.43</time>
   <energy>
    <i name="e_fr_energy">   -420.27874212 </i>
    <i name="e_wo_entrp">   -420.25070210 </i>
    <i name="e_0_energy">   -420.26472211 </i>
   </energy>
  </scstep>
  <scstep>
   <time name="dav">   65.08   65.24</time>
   <time name="total">   65.09   65.24</time>
   <energy>
    <i name="e_fr_energy">   -420.30199815 </i>
    <i name="e_wo_entrp">   -420.27395823 </i>
    <i name="e_0_energy">   -420.28797819 </i>
   </energy>
  </scstep>
  <scstep>
   <time name="dav">   65.27   65.44</time>
   <time name="total">   65.27   65.44</time>
   <energy>
    <i name="e_fr_energy">   -420.30309646 </i>
    <i name="e_wo_entrp">   -420.27505654 </i>
    <i name="e_0_energy">   -420.28907650 </i>
   </energy>
  </scstep>
  <scstep>
   <time name="dav">   64.04   64.20</time>
   <time name="total">   64.04   64.20</time>
   <energy>
    <i name="e_fr_energy">   -420.30314075 </i>
    <i name="e_wo_entrp">   -420.27510083 </i>
    <i name="e_0_energy">   -420.28912079 </i>
   </energy>
  </scstep>
  <scstep>
   <time name="dav">   61.91   62.06</time>
   <time name="total">   61.91   62.06</time>
   <energy>
    <i name="e_fr_energy">   -420.30314329 </i>
    <i name="e_wo_entrp">   -420.27510337 </i>
    <i name="e_0_energy">   -420.28912333 </i>
   </energy>
  </scstep>
  <scstep>
   <time name="dav">   52.52   52.67</time>
   <time name="total">   57.02   57.18</time>
   <energy>
    <i name="e_fr_energy">   -420.30314342 </i>
    <i name="e_wo_entrp">   -420.27510350 </i>
    <i name="e_0_energy">   -420.28912346 </i>
   </energy>
  </scstep>
  <scstep>
   <time name="dav">   57.46   57.61</time>
   <time name="total">  115.99  116.28</time>
   <energy>
    <i name="e_fr_energy">   -387.37741602 </i>
    <i name="e_wo_entrp">   -387.34839270 </i>
    <i name="e_0_energy">   -387.36290436 </i>
   </energy>
  </scstep>
  <scstep>
   <time name="dav">   57.32   57.47</time>
   <time name="total">  115.84  116.14</time>
   <energy>
    <i name="e_fr_energy">   -390.29951522 </i>
    <i name="e_wo_entrp">   -390.28036403 </i>
    <i name="e_0_energy">   -390.28993963 </i>
   </energy>
  </scstep>
  <scstep>
   <time name="dav">   56.56   56.70</time>
   <time name="total">  115.16  115.45</time>
   <energy>
    <i name="e_fr_energy">   -390.13225259 </i>
    <i name="e_wo_entrp">   -390.10294689 </i>
    <i name="e_0_energy">   -390.11759974 </i>
   </energy>
  </scstep>
  <scstep>
   <time name="dav">   57.01   57.15</time>
   <time name="total">  115.68  115.97</time>
   <energy>
    <i name="e_fr_energy">   -392.75284730 </i>
    <i name="e_wo_entrp">   -392.73045426 </i>
    <i name="e_0_energy">   -392.74165078 </i>
   </energy>
  </scstep>
  <scstep>
   <time name="dav">   55.15   55.29</time>
   <time name="total">  113.79  114.12</time>
   <energy>
    <i name="e_fr_energy">   -394.41484513 </i>
    <i name="e_wo_entrp">   -394.38152550 </i>
    <i name="e_0_energy">   -394.39818532 </i>
   </energy>
  </scstep>
  <scstep>
   <time name="dav">   57.80   57.95</time>
   <time name="total">  116.44  116.73</time>
   <energy>
    <i name="e_fr_energy">   -397.00403986 </i>
    <i name="e_wo_entrp">   -396.97243889 </i>
    <i name="e_0_energy">   -396.98823937 </i>
   </energy>
  </scstep>
  <scstep>
   <time name="dav">   57.51   57.67</time>
   <time name="total">  116.15  116.44</time>
   <energy>
    <i name="e_fr_energy">   -398.87008206 </i>
    <i name="e_wo_entrp">   -398.84105446 </i>
    <i name="e_0_energy">   -398.85556826 </i>
   </energy>
  </scstep>
  <scstep>
   <time name="dav">   55.48   55.62</time>
   <time name="total">  114.10  114.38</time>
   <energy>
    <i name="e_fr_energy">   -399.28528786 </i>
    <i name="e_wo_entrp">   -399.25322694 </i>
    <i name="e_0_energy">   -399.26925740 </i>
   </energy>
  </scstep>
  <scstep>
   <time name="dav">   56.19   56.33</time>
   <time name="total">  114.89  115.19</time>
   <energy>
    <i name="e_fr_energy">   -399.54871939 </i>
    <i name="e_wo_entrp">   -399.51676711 </i>
    <i name="e_0_energy">   -399.53274325 </i>
   </energy>
  </scstep>
  <scstep>
   <time name="dav">   57.91   58.06</time>
   <time name="total">  116.50  116.79</time>
   <energy>
    <i name="e_fr_energy">   -399.55680357 </i>
    <i name="e_wo_entrp">   -399.52219655 </i>
    <i name="e_0_energy">   -399.53950006 </i>
   </energy>
  </scstep>
  <scstep>
   <time name="dav">   56.25   56.39</time>
   <time name="total">  114.88  115.20</time>
   <energy>
    <i name="e_fr_energy">   -399.54816340 </i>
    <i name="e_wo_entrp">   -399.51439686 </i>
    <i name="e_0_energy">   -399.53128013 </i>
   </energy>
  </scstep>
  <scstep>
   <time name="dav">   55.96   56.11</time>
   <time name="total">  114.59  114.88</time>
   <energy>
    <i name="e_fr_energy">   -399.54574268 </i>
    <i name="e_wo_entrp">   -399.51127327 </i>
    <i name="e_0_energy">   -399.52850797 </i>
   </energy>
  </scstep>
  <scstep>
   <time name="dav">   59.30   59.46</time>
   <time name="total">  117.95  118.26</time>
   <energy>
    <i name="e_fr_energy">   -399.54507003 </i>
    <i name="e_wo_entrp">   -399.51013454 </i>
    <i name="e_0_energy">   -399.52760229 </i>
   </energy>
  </scstep>
  <scstep>
   <time name="dav">   58.99   59.16</time>
   <time name="total">  117.80  118.11</time>
   <energy>
    <i name="e_fr_energy">   -399.54472904 </i>
    <i name="e_wo_entrp">   -399.50962626 </i>
    <i name="e_0_energy">   -399.52717765 </i>
   </energy>
  </scstep>
  <scstep>
   <time name="dav">   60.04   60.20</time>
   <time name="total">  118.70  119.01</time>
   <energy>
    <i name="e_fr_energy">   -399.54461171 </i>
    <i name="e_wo_entrp">   -399.50946853 </i>
    <i name="e_0_energy">   -399.52704012 </i>
   </energy>
  </scstep>
  <scstep>
   <time name="dav">   59.78   59.93</time>
   <time name="total">  118.42  118.76</time>
   <energy>
    <i name="e_fr_energy">   -399.54469926 </i>
    <i name="e_wo_entrp">   -399.50955677 </i>
    <i name="e_0_energy">   -399.52712802 </i>
   </energy>
  </scstep>
  <scstep>
   <time name="dav">   60.92   61.08</time>
   <time name="total">  119.68  120.02</time>
   <energy>
    <i name="e_fr_energy">   -399.54492516 </i>
    <i name="e_wo_entrp">   -399.50971505 </i>
    <i name="e_0_energy">   -399.52732010 </i>
   </energy>
  </scstep>
  <scstep>
   <time name="dav">   60.80   60.97</time>
   <time name="total">  119.40  119.72</time>
   <energy>
    <i name="e_fr_energy">   -399.54497222 </i>
    <i name="e_wo_entrp">   -399.50976838 </i>
    <i name="e_0_energy">   -399.52737030 </i>
   </energy>
  </scstep>
  <scstep>
   <time name="dav">   60.64   60.81</time>
   <time name="total">  119.10  119.43</time>
   <energy>
    <i name="e_fr_energy">   -399.54488394 </i>
    <i name="e_wo_entrp">   -399.50967816 </i>
    <i name="e_0_energy">   -399.52728105 </i>
   </energy>
  </scstep>
  <scstep>
   <time name="dav">   60.07   60.23</time>
   <time name="total">  118.54  118.84</time>
   <energy>
    <i name="e_fr_energy">   -399.54482968 </i>
    <i name="e_wo_entrp">   -399.50958580 </i>
    <i name="e_0_energy">   -399.52720774 </i>
   </energy>
  </scstep>
  <scstep>
   <time name="dav">   57.05   57.21</time>
   <time name="total">  115.65  115.95</time>
   <energy>
    <i name="e_fr_energy">   -399.54484392 </i>
    <i name="e_wo_entrp">   -399.50960223 </i>
    <i name="e_0_energy">   -399.52722307 </i>
   </energy>
  </scstep>
  <scstep>
   <time name="dav">   52.49   52.62</time>
   <time name="total">  111.16  111.45</time>
   <energy>
    <i name="e_fr_energy">   -399.54488588 </i>
    <i name="e_wo_entrp">   -399.50965739 </i>
    <i name="e_0_energy">   -399.52727164 </i>
   </energy>
  </scstep>
  <scstep>
   <time name="dav">   52.18   52.31</time>
   <time name="total">  110.79  111.06</time>
   <energy>
    <i name="e_fr_energy">   -399.54491715 </i>
    <i name="e_wo_entrp">   -399.50968973 </i>
    <i name="e_0_energy">   -399.52730344 </i>
   </energy>
  </scstep>
  <scstep>
   <time name="dav">   53.31   53.44</time>
   <time name="total">  111.91  112.20</time>
   <energy>
    <i name="e_fr_energy">   -399.54494349 </i>
    <i name="e_wo_entrp">   -399.50972097 </i>
    <i name="e_0_energy">   -399.52733223 </i>
   </energy>
  </scstep>
  <scstep>
   <time name="dav">   51.17   51.30</time>
   <time name="total">  109.85  110.12</time>
   <energy>
    <i name="e_fr_energy">   -399.54494996 </i>
    <i name="e_wo_entrp">   -399.50972839 </i>
    <i name="e_0_energy">   -399.52733917 </i>
   </energy>
  </scstep>
  <scstep>
   <time name="dav">   49.46   49.63</time>
   <time name="total">  108.17  108.49</time>
   <energy>
    <i name="e_fr_energy">   -399.54495260 </i>
    <i name="e_wo_entrp">   -399.50973115 </i>
    <i name="e_0_energy">   -399.52734187 </i>
   </energy>
  </scstep>
  <scstep>
   <time name="dav">   49.37   49.50</time>
   <time name="total">  108.07  108.35</time>
   <energy>
    <i name="e_fr_energy">   -399.54495317 </i>
    <i name="e_wo_entrp">   -399.50973233 </i>
    <i name="e_0_energy">   -399.52734275 </i>
   </energy>
  </scstep>
  <scstep>
   <time name="dav">   47.87   47.99</time>
   <time name="total">  106.60  106.87</time>
   <energy>
    <i name="e_fr_energy">   -399.54495203 </i>
    <i name="e_wo_entrp">   -399.50973146 </i>
    <i name="e_0_energy">   -399.52734175 </i>
   </energy>
  </scstep>
  <scstep>
   <time name="dav">   48.94   49.06</time>
   <time name="total">  107.81  108.08</time>
   <energy>
    <i name="e_fr_energy">   -399.54495144 </i>
    <i name="e_wo_entrp">   -399.50973115 </i>
    <i name="e_0_energy">   -399.52734129 </i>
   </energy>
  </scstep>
  <scstep>
   <time name="dav">   48.10   48.23</time>
   <time name="total">  106.76  107.04</time>
   <energy>
    <i name="e_fr_energy">   -399.54495114 </i>
    <i name="e_wo_entrp">   -399.50973087 </i>
    <i name="e_0_energy">   -399.52734101 </i>
   </energy>
  </scstep>
  <scstep>
   <time name="dav">   47.70   47.82</time>
   <time name="total">  106.42  106.70</time>
   <energy>
    <i name="e_fr_energy">   -399.54495164 </i>
    <i name="e_wo_entrp">   -399.50973118 </i>
    <i name="e_0_energy">   -399.52734141 </i>
   </energy>
  </scstep>
  <scstep>
   <time name="dav">   47.61   47.72</time>
   <time name="total">  106.35  106.62</time>
   <energy>
    <i name="e_fr_energy">   -399.54495229 </i>
    <i name="e_wo_entrp">   -399.50973182 </i>
    <i name="e_0_energy">   -399.52734205 </i>
   </energy>
  </scstep>
  <scstep>
   <time name="dav">   45.67   45.79</time>
   <time name="total">  104.40  104.66</time>
   <energy>
    <i name="e_fr_energy">   -399.54495276 </i>
    <i name="e_wo_entrp">   -399.50973230 </i>
    <i name="e_0_energy">   -399.52734253 </i>
   </energy>
  </scstep>
  <scstep>
   <time name="dav">   44.92   45.04</time>
   <time name="total">  103.61  103.88</time>
   <energy>
    <i name="e_fr_energy">   -399.54495312 </i>
    <i name="e_wo_entrp">   -399.50973266 </i>
    <i name="e_0_energy">   -399.52734289 </i>
   </energy>
  </scstep>
  <scstep>
   <time name="dav">   41.87   41.98</time>
   <time name="total">  100.67  100.94</time>
   <energy>
    <i name="e_fr_energy">   -399.54495323 </i>
    <i name="e_wo_entrp">   -399.50973276 </i>
    <i name="e_0_energy">   -399.52734299 </i>
   </energy>
  </scstep>
  <scstep>
   <time name="dav">   41.82   41.93</time>
   <time name="total">   95.98   96.26</time>
   <energy>
    <i name="alphaZ">    724.79310432 </i>
    <i name="ewald"> 146151.60506348 </i>
    <i name="hartreedc">-199238.40537190 </i>
    <i name="XCdc">   2277.58663996 </i>
    <i name="pawpsdc">  75715.74262897 </i>
    <i name="pawaedc"> -75131.64171171 </i>
    <i name="eentropy">     -0.03522046 </i>
    <i name="bandstr"> -12176.68450357 </i>
    <i name="atom">  61277.49441763 </i>
    <i name="e_fr_energy">   -399.54495328 </i>
    <i name="e_wo_entrp">   -399.50973282 </i>
    <i name="e_0_energy">   -399.52734305 </i>
   </energy>
  </scstep>
  <structure>
   <crystal>
    <varray name="basis" >
     <v>      15.62500000       0.00000000       0.00000000 </v>
     <v>      -7.81250000      13.53164693       0.00000000 </v>
     <v>       0.00000000       0.00000000      20.00000000 </v>
    </varray>
    <i name="volume">   4228.63966688 </i>
    <varray name="rec_basis" >
     <v>       0.06400000       0.03695042      -0.00000000 </v>
     <v>       0.00000000       0.07390083       0.00000000 </v>
     <v>       0.00000000      -0.00000000       0.05000000 </v>
    </varray>
   </crystal>
   <varray name="positions" >
    <v>       0.06554800       0.13197288       0.18701292 </v>
    <v>       0.26642488       0.13197288       0.18701292 </v>
    <v>       0.46680018       0.13319980       0.18539957 </v>
    <v>       0.66665094       0.13330188       0.18473282 </v>
    <v>       0.86639962       0.13319980       0.18539957 </v>
    <v>       0.06554800       0.33357510       0.18701292 </v>
    <v>       0.26666666       0.33333332       0.19060606 </v>
    <v>       0.46802710       0.33357510       0.18701292 </v>
    <v>       0.66695703       0.33329280       0.18497794 </v>
    <v>       0.86633577       0.33329280       0.18497794 </v>
    <v>       0.06657268       0.53342729       0.18572578 </v>
    <v>       0.26642488       0.53445198       0.18701292 </v>
    <v>       0.46802710       0.53445198       0.18701292 </v>
    <v>       0.66685461       0.53342729       0.18572578 </v>
    <v>       0.86668917       0.53337834       0.18504086 </v>
    <v>       0.06662164       0.73331081       0.18504086 </v>
    <v>       0.26670718       0.73366421       0.18497794 </v>
    <v>       0.46680018       0.73360036       0.18539957 </v>
    <v>       0.66695703       0.73366421       0.18497794 </v>
    <v>       0.86668917       0.73331081       0.18504086 </v>
    <v>       0.06657268       0.93314537       0.18572578 </v>
    <v>       0.26670718       0.93304295       0.18497794 </v>
    <v>       0.46669809       0.93334904       0.18473282 </v>
    <v>       0.66665094       0.93334904       0.18473282 </v>
    <v>       0.86633577       0.93304295       0.18497794 </v>
    <v>       0.13365667       0.06731332       0.10736266 </v>
    <v>       0.33307735       0.06721178       0.10646984 </v>
    <v>       0.53315748       0.06684252       0.10579654 </v>
    <v>       0.73368505       0.06684252       0.10579654 </v>
    <v>       0.93413444       0.06721178       0.10646984 </v>
    <v>       0.13587821       0.26793909       0.11049310 </v>
    <v>       0.33206090       0.26793909       0.11049310 </v>
    <v>       0.53278822       0.26692264       0.10646984 </v>
    <v>       0.73336497       0.26672992       0.10563812 </v>
    <v>       0.93413444       0.26692264       0.10646984 </v>
    <v>       0.13365667       0.46634333       0.10736266 </v>
    <v>       0.33206090       0.46412179       0.11049310 </v>
    <v>       0.53268668       0.46634333       0.10736266 </v>
    <v>       0.73313685       0.46688060       0.10608299 </v>
    <v>       0.93374376       0.46688060       0.10608299 </v>
    <v>       0.13311940       0.66625623       0.10608299 </v>
    <v>       0.33307735       0.66586556       0.10646984 </v>
    <v>       0.53278822       0.66586556       0.10646984 </v>
    <v>       0.73313685       0.66625623       0.10608299 </v>
    <v>       0.93333334       0.66666666       0.10591188 </v>
    <v>       0.13311940       0.86686315       0.10608299 </v>
    <v>       0.33327008       0.86663503       0.10563812 </v>
    <v>       0.53315748       0.86631495       0.10579654 </v>
    <v>       0.73336497       0.86663503       0.10563812 </v>
    <v>       0.93374376       0.86686315       0.10608299 </v>
    <v>       0.13275046       0.06550091       0.26563548 </v>
    <v>       0.33381226       0.06467595       0.26489354 </v>
    <v>       0.53363171       0.06636828       0.26401756 </v>
    <v>       0.73273658       0.06636828       0.26401756 </v>
    <v>       0.93086371       0.06467595       0.26489354 </v>
    <v>       0.12128012       0.26064005       0.26991347 </v>
    <v>       0.33935995       0.26064005       0.26991347 </v>
    <v>       0.53532405       0.26618774       0.26489354 </v>
    <v>       0.73319680       0.26639358       0.26396704 </v>
    <v>       0.93086371       0.26618774       0.26489354 </v>
    <v>       0.13275046       0.46724953       0.26563548 </v>
    <v>       0.33935995       0.47871988       0.26991347 </v>
    <v>       0.53449909       0.46724953       0.26563548 </v>
    <v>       0.73376967       0.46656636       0.26427991 </v>
    <v>       0.93279671       0.46656636       0.26427991 </v>
    <v>       0.13343363       0.66720329       0.26427991 </v>
    <v>       0.33381226       0.66913629       0.26489354 </v>
    <v>       0.53532405       0.66913629       0.26489354 </v>
    <v>       0.73376967       0.66720329       0.26427991 </v>
    <v>       0.93333334       0.66666666       0.26408694 </v>
    <v>       0.13343363       0.86623033       0.26427991 </v>
    <v>       0.33360642       0.86680320       0.26396704 </v>
    <v>       0.53363171       0.86726341       0.26401756 </v>
    <v>       0.73319680       0.86680320       0.26396704 </v>
    <v>       0.93279671       0.86623033       0.26427991 </v>
    <v>       0.26666666       0.33333332       0.32845921 </v>
   </varray>
  </structure>
  <varray name="forces" >
   <v>       0.20441894       0.01856027       0.06561912 </v>
   <v>      -0.20441894       0.01856027       0.06561912 </v>
   <v>       0.02623883      -0.01514899      -0.00124809 </v>
   <v>       0.00000000       0.01591840       0.00000903 </v>
   <v>      -0.02623883      -0.01514899      -0.00124809 </v>
   <v>       0.11828313       0.16775186       0.06561912 </v>
   <v>       0.00000000      -0.00000000      -0.23096381 </v>
   <v>      -0.11828313       0.16775186       0.06561912 </v>
   <v>       0.00761078       0.01392577       0.01846064 </v>
   <v>      -0.00761078       0.01392577       0.01846064 </v>
   <v>       0.00722672      -0.00417235       0.00547786 </v>
   <v>      -0.08613581      -0.18631212       0.06561912 </v>
   <v>       0.08613581      -0.18631212       0.06561912 </v>
   <v>      -0.00722672      -0.00417235       0.00547786 </v>
   <v>       0.00000000       0.02465176      -0.00576224 </v>
   <v>      -0.02134905      -0.01232588      -0.00576224 </v>
   <v>      -0.01586546      -0.00037176       0.01846064 </v>
   <v>       0.00000000       0.03029799      -0.00124809 </v>
   <v>       0.01586546      -0.00037176       0.01846064 </v>
   <v>       0.02134905      -0.01232588      -0.00576224 </v>
   <v>       0.00000000       0.00834470       0.00547786 </v>
   <v>      -0.00825468      -0.01355401       0.01846064 </v>
   <v>      -0.01378574      -0.00795920       0.00000903 </v>
   <v>       0.01378574      -0.00795920       0.00000903 </v>
   <v>       0.00825468      -0.01355401       0.01846064 </v>
   <v>       0.00000000      -0.01627415      -0.03623027 </v>
   <v>       0.01289068      -0.00286090      -0.01408329 </v>
   <v>       0.00435183      -0.00251253      -0.01812878 </v>
   <v>      -0.00435183      -0.00251253      -0.01812878 </v>
   <v>      -0.01289068      -0.00286090      -0.01408329 </v>
   <v>      -0.00439234      -0.00253592      -0.02386529 </v>
   <v>       0.00439234      -0.00253592      -0.02386529 </v>
   <v>       0.00892295      -0.00973320      -0.01408329 </v>
   <v>       0.00000000      -0.00249007      -0.01529714 </v>
   <v>      -0.00892295      -0.00973320      -0.01408329 </v>
   <v>      -0.01409383       0.00813708      -0.03623027 </v>
   <v>       0.00000000       0.00507184      -0.02386529 </v>
   <v>       0.01409383       0.00813708      -0.03623027 </v>
   <v>       0.00718912       0.00100440      -0.01993795 </v>
   <v>      -0.00718912       0.00100440      -0.01993795 </v>
   <v>      -0.00446440       0.00572376      -0.01993795 </v>
   <v>       0.00396773       0.01259411      -0.01408329 </v>
   <v>      -0.00396773       0.01259411      -0.01408329 </v>
   <v>       0.00446440       0.00572376      -0.01993795 </v>
   <v>       0.00000000      -0.00000000      -0.02812744 </v>
   <v>       0.00272472      -0.00672816      -0.01993795 </v>
   <v>       0.00215647       0.00124504      -0.01529714 </v>
   <v>       0.00000000       0.00502506      -0.01812878 </v>
   <v>      -0.00215647       0.00124504      -0.01529714 </v>
   <v>      -0.00272472      -0.00672816      -0.01993795 </v>
   <v>       0.00000000      -0.06153068       0.01093869 </v>
   <v>       0.02417383      -0.03176425       0.00531697 </v>
   <v>       0.00705142      -0.00407114       0.01889046 </v>
   <v>      -0.00705142      -0.00407114       0.01889046 </v>
   <v>      -0.02417383      -0.03176425       0.00531697 </v>
   <v>      -0.09870563      -0.05698772      -0.11171102 </v>
   <v>       0.09870563      -0.05698772      -0.11171102 </v>
   <v>       0.03959557      -0.00505303       0.00531697 </v>
   <v>       0.00000000      -0.00242150       0.01950227 </v>
   <v>      -0.03959557      -0.00505303       0.00531697 </v>
   <v>      -0.05328713       0.03076534       0.01093869 </v>
   <v>      -0.00000000       0.11397544      -0.11171102 </v>
   <v>       0.05328713       0.03076534       0.01093869 </v>
   <v>       0.01114191       0.00040379       0.01612565 </v>
   <v>      -0.01114191       0.00040379       0.01612565 </v>
   <v>      -0.00592065       0.00944728       0.01612565 </v>
   <v>      -0.01542173       0.03681728       0.00531697 </v>
   <v>       0.01542173       0.03681728       0.00531697 </v>
   <v>       0.00592065       0.00944728       0.01612565 </v>
   <v>       0.00000000      -0.00000000       0.02632638 </v>
   <v>       0.00522126      -0.00985107       0.01612565 </v>
   <v>       0.00209708       0.00121075       0.01950227 </v>
   <v>       0.00000000       0.00814228       0.01889046 </v>
   <v>      -0.00209708       0.00121075       0.01950227 </v>
   <v>      -0.00522126      -0.00985107       0.01612565 </v>
   <v>       0.00000000      -0.00000000       0.27603159 </v>
  </varray>
  <varray name="stress" >
   <v>      10.57537283       0.00000000      -0.00000000 </v>
   <v>       0.00000000      10.57537283       0.00000000 </v>
   <v>       0.00000000      -0.00000000      -1.51607203 </v>
  </varray>
  <energy>
   <i name="e_fr_energy">   -399.54495328 </i>
   <i name="e_wo_entrp">   -399.52734305 </i>
   <i name="e_0_energy">     -0.03522046 </i>
  </energy>
  <time name="totalsc"> 4944.36 4957.66</time>
 </calculation>
 <calculation>
  <scstep>
   <time name="dav">   55.08   55.25</time>
   <time name="total">  113.81  114.14</time>
   <energy>
    <i name="alphaZ">    724.79310432 </i>
    <i name="ewald"> 146139.13558275 </i>
    <i name="hartreedc">-199226.28494210 </i>
    <i name="XCdc">   2277.54406508 </i>
    <i name="pawpsdc">  75715.74270897 </i>
    <i name="pawaedc"> -75131.64179208 </i>
    <i name="eentropy">     -0.03439696 </i>
    <i name="bandstr"> -12176.29781426 </i>
    <i name="atom">  61277.49441763 </i>
    <i name="e_fr_energy">   -399.54906664 </i>
    <i name="e_wo_entrp">   -399.51466968 </i>
    <i name="e_0_energy">   -399.53186816 </i>
   </energy>
  </scstep>
  <scstep>
   <time name="dav">   56.54   56.72</time>
   <time name="total">  115.68  116.03</time>
   <energy>
    <i name="e_fr_energy">   -399.55059910 </i>
    <i name="e_wo_entrp">   -399.51610152 </i>
    <i name="e_0_energy">   -399.53335031 </i>
   </energy>
  </scstep>
  <scstep>
   <time name="dav">   60.04   60.23</time>
   <time name="total">  119.23  119.58</time>
   <energy>
    <i name="e_fr_energy">   -399.55062751 </i>
    <i name="e_wo_entrp">   -399.51674028 </i>
    <i name="e_0_energy">   -399.53368389 </i>
   </energy>
  </scstep>
  <scstep>
   <time name="dav">   58.78   58.96</time>
   <time name="total">  118.02  118.36</time>
   <energy>
    <i name="e_fr_energy">   -399.55058706 </i>
    <i name="e_wo_entrp">   -399.51614992 </i>
    <i name="e_0_energy">   -399.53336849 </i>
   </energy>
  </scstep>
  <scstep>
   <time name="dav">   59.04   59.20</time>
   <time name="total">  118.17  118.48</time>
   <energy>
    <i name="e_fr_energy">   -399.55057680 </i>
    <i name="e_wo_entrp">   -399.51636645 </i>
    <i name="e_0_energy">   -399.53347162 </i>
   </energy>
  </scstep>
  <scstep>
   <time name="dav">   57.05   57.20</time>
   <time name="total">  116.16  116.47</time>
   <energy>
    <i name="e_fr_energy">   -399.55056982 </i>
    <i name="e_wo_entrp">   -399.51641370 </i>
    <i name="e_0_energy">   -399.53349176 </i>
   </energy>
  </scstep>
  <scstep>
   <time name="dav">   57.06   57.21</time>
   <time name="total">  116.12  116.43</time>
   <energy>
    <i name="e_fr_energy">   -399.55056471 </i>
    <i name="e_wo_entrp">   -399.51642826 </i>
    <i name="e_0_energy">   -399.53349648 </i>
   </energy>
  </scstep>
  <scstep>
   <time name="dav">   57.64   57.80</time>
   <time name="total">  116.73  117.06</time>
   <energy>
    <i name="e_fr_energy">   -399.55055699 </i>
    <i name="e_wo_entrp">   -399.51642934 </i>
    <i name="e_0_energy">   -399.53349317 </i>
   </energy>
  </scstep>
  <scstep>
   <time name="dav">   57.05   57.21</time>
   <time name="total">  116.05  116.36</time>
   <energy>
    <i name="e_fr_energy">   -399.55054525 </i>
    <i name="e_wo_entrp">   -399.51642249 </i>
    <i name="e_0_energy">   -399.53348387 </i>
   </energy>
  </scstep>
  <scstep>
   <time name="dav">   56.14   56.30</time>
   <time name="total">  115.12  115.43</time>
   <energy>
    <i name="e_fr_energy">   -399.55053617 </i>
    <i name="e_wo_entrp">   -399.51642365 </i>
    <i name="e_0_energy">   -399.53347991 </i>
   </energy>
  </scstep>
  <scstep>
   <time name="dav">   50.82   50.96</time>
   <time name="total">  109.80  110.09</time>
   <energy>
    <i name="e_fr_energy">   -399.55053097 </i>
    <i name="e_wo_entrp">   -399.51642365 </i>
    <i name="e_0_energy">   -399.53347731 </i>
   </energy>
  </scstep>
  <scstep>
   <time name="dav">   52.30   52.44</time>
   <time name="total">  111.30  111.60</time>
   <energy>
    <i name="e_fr_energy">   -399.55052644 </i>
    <i name="e_wo_entrp">   -399.51642309 </i>
    <i name="e_0_energy">   -399.53347477 </i>
   </energy>
  </scstep>
  <scstep>
   <time name="dav">   51.20   51.33</time>
   <time name="total">  110.24  110.56</time>
   <energy>
    <i name="e_fr_energy">   -399.55052307 </i>
    <i name="e_wo_entrp">   -399.51642343 </i>
    <i name="e_0_energy">   -399.53347325 </i>
   </energy>
  </scstep>
  <scstep>
   <time name="dav">   49.83   49.97</time>
   <time name="total">  108.83  109.12</time>
   <energy>
    <i name="e_fr_energy">   -399.55052033 </i>
    <i name="e_wo_entrp">   -399.51642289 </i>
    <i name="e_0_energy">   -399.53347161 </i>
   </energy>
  </scstep>
  <scstep>
   <time name="dav">   48.78   48.92</time>
   <time name="total">  107.70  108.01</time>
   <energy>
    <i name="e_fr_energy">   -399.55051991 </i>
    <i name="e_wo_entrp">   -399.51642402 </i>
    <i name="e_0_energy">   -399.53347196 </i>
   </energy>
  </scstep>
  <scstep>
   <time name="dav">   47.11   47.24</time>
   <time name="total">  106.00  106.30</time>
   <energy>
    <i name="e_fr_energy">   -399.55052071 </i>
    <i name="e_wo_entrp">   -399.51642455 </i>
    <i name="e_0_energy">   -399.53347263 </i>
   </energy>
  </scstep>
  <scstep>
   <time name="dav">   47.31   47.43</time>
   <time name="total">  106.48  106.77</time>
   <energy>
    <i name="e_fr_energy">   -399.55052152 </i>
    <i name="e_wo_entrp">   -399.51642521 </i>
    <i name="e_0_energy">   -399.53347336 </i>
   </energy>
  </scstep>
  <scstep>
   <time name="dav">   47.61   47.75</time>
   <time name="total">  106.61  106.89</time>
   <energy>
    <i name="e_fr_energy">   -399.55052217 </i>
    <i name="e_wo_entrp">   -399.51642578 </i>
    <i name="e_0_energy">   -399.53347398 </i>
   </energy>
  </scstep>
  <scstep>
   <time name="dav">   47.24   47.37</time>
   <time name="total">  106.31  106.60</time>
   <energy>
    <i name="e_fr_energy">   -399.55052288 </i>
    <i name="e_wo_entrp">   -399.51642626 </i>
    <i name="e_0_energy">   -399.53347457 </i>
   </energy>
  </scstep>
  <scstep>
   <time name="dav">   46.88   47.01</time>
   <time name="total">  105.97  106.25</time>
   <energy>
    <i name="e_fr_energy">   -399.55052348 </i>
    <i name="e_wo_entrp">   -399.51642679 </i>
    <i name="e_0_energy">   -399.53347514 </i>
   </energy>
  </scstep>
  <scstep>
   <time name="dav">   47.30   47.44</time>
   <time name="total">  106.39  106.70</time>
   <energy>
    <i name="e_fr_energy">   -399.55052413 </i>
    <i name="e_wo_entrp">   -399.51642748 </i>
    <i name="e_0_energy">   -399.53347581 </i>
   </energy>
  </scstep>
  <scstep>
   <time name="dav">   46.21   46.35</time>
   <time name="total">  105.29  105.58</time>
   <energy>
    <i name="e_fr_energy">   -399.55052443 </i>
    <i name="e_wo_entrp">   -399.51642779 </i>
    <i name="e_0_energy">   -399.53347611 </i>
   </energy>
  </scstep>
  <scstep>
   <time name="dav">   46.41   46.54</time>
   <time name="total">  105.65  105.93</time>
   <energy>
    <i name="e_fr_energy">   -399.55052477 </i>
    <i name="e_wo_entrp">   -399.51642812 </i>
    <i name="e_0_energy">   -399.53347645 </i>
   </energy>
  </scstep>
  <scstep>
   <time name="dav">   45.25   45.39</time>
   <time name="total">  104.30  104.60</time>
   <energy>
    <i name="e_fr_energy">   -399.55052495 </i>
    <i name="e_wo_entrp">   -399.51642828 </i>
    <i name="e_0_energy">   -399.53347662 </i>
   </energy>
  </scstep>
  <scstep>
   <time name="dav">   41.03   41.17</time>
   <time name="total">   95.73   96.01</time>
   <energy>
    <i name="alphaZ">    724.79310432 </i>
    <i name="ewald"> 146139.13558275 </i>
    <i name="hartreedc">-199226.32078603 </i>
    <i name="XCdc">   2277.54705394 </i>
    <i name="pawpsdc">  75702.26699258 </i>
    <i name="pawaedc"> -75118.12925395 </i>
    <i name="eentropy">     -0.03409667 </i>
    <i name="bandstr"> -12176.30353954 </i>
    <i name="atom">  61277.49441763 </i>
    <i name="e_fr_energy">   -399.55052496 </i>
    <i name="e_wo_entrp">   -399.51642829 </i>
    <i name="e_0_energy">   -399.53347662 </i>
   </energy>
  </scstep>
  <structure>
   <crystal>
    <varray name="basis" >
     <v>      15.62500000       0.00000000       0.00000000 </v>
     <v>      -7.81250000      13.53164693       0.00000000 </v>
     <v>       0.00000000       0.00000000      20.00000000 </v>
    </varray>
    <i name="volume">   4228.63966688 </i>
    <varray name="rec_basis" >
     <v>       0.06400000       0.03695042      -0.00000000 </v>
     <v>       0.00000000       0.07390083       0.00000000 </v>
     <v>       0.00000000      -0.00000000       0.05000000 </v>
    </varray>
   </crystal>
   <varray name="positions" >
    <v>       0.06571406       0.13198942       0.18705249 </v>
    <v>       0.26627536       0.13198942       0.18705249 </v>
    <v>       0.46681368       0.13318630       0.18539881 </v>
    <v>       0.66665804       0.13331607       0.18473283 </v>
    <v>       0.86637261       0.13318630       0.18539881 </v>
    <v>       0.06571406       0.33372462       0.18705249 </v>
    <v>       0.26666666       0.33333332       0.19046679 </v>
    <v>       0.46801056       0.33372462       0.18705249 </v>
    <v>       0.66696911       0.33330521       0.18498907 </v>
    <v>       0.86633610       0.33330521       0.18498907 </v>
    <v>       0.06657640       0.53342357       0.18572908 </v>
    <v>       0.26627536       0.53428592       0.18705249 </v>
    <v>       0.46801056       0.53428592       0.18705249 </v>
    <v>       0.66684717       0.53342357       0.18572908 </v>
    <v>       0.86670016       0.53340031       0.18503738 </v>
    <v>       0.06659966       0.73329982       0.18503738 </v>
    <v>       0.26669477       0.73366388       0.18498907 </v>
    <v>       0.46681368       0.73362736       0.18539881 </v>
    <v>       0.66696911       0.73366388       0.18498907 </v>
    <v>       0.86670016       0.73329982       0.18503738 </v>
    <v>       0.06657640       0.93315281       0.18572908 </v>
    <v>       0.26669477       0.93303087       0.18498907 </v>
    <v>       0.46668391       0.93334194       0.18473283 </v>
    <v>       0.66665804       0.93334194       0.18473283 </v>
    <v>       0.86633610       0.93303087       0.18498907 </v>
    <v>       0.13364941       0.06729881       0.10734081 </v>
    <v>       0.33308603       0.06720923       0.10646135 </v>
    <v>       0.53315972       0.06684028       0.10578561 </v>
    <v>       0.73368057       0.06684028       0.10578561 </v>
    <v>       0.93412321       0.06720923       0.10646135 </v>
    <v>       0.13587369       0.26793683       0.11047871 </v>
    <v>       0.33206316       0.26793683       0.11047871 </v>
    <v>       0.53279077       0.26691397       0.10646135 </v>
    <v>       0.73336386       0.26672770       0.10562890 </v>
    <v>       0.93412321       0.26691397       0.10646135 </v>
    <v>       0.13364941       0.46635058       0.10734081 </v>
    <v>       0.33206316       0.46412631       0.11047871 </v>
    <v>       0.53270119       0.46635058       0.10734081 </v>
    <v>       0.73314285       0.46688150       0.10607096 </v>
    <v>       0.93373866       0.46688150       0.10607096 </v>
    <v>       0.13311850       0.66626133       0.10607096 </v>
    <v>       0.33308603       0.66587678       0.10646135 </v>
    <v>       0.53279077       0.66587678       0.10646135 </v>
    <v>       0.73314285       0.66626133       0.10607096 </v>
    <v>       0.93333334       0.66666666       0.10589492 </v>
    <v>       0.13311850       0.86685715       0.10607096 </v>
    <v>       0.33327230       0.86663614       0.10562890 </v>
    <v>       0.53315972       0.86631942       0.10578561 </v>
    <v>       0.73336386       0.86663614       0.10562890 </v>
    <v>       0.93373866       0.86685715       0.10607096 </v>
    <v>       0.13272304       0.06544607       0.26564207 </v>
    <v>       0.33381676       0.06464764       0.26489675 </v>
    <v>       0.53363534       0.06636465       0.26402895 </v>
    <v>       0.73272933       0.06636465       0.26402895 </v>
    <v>       0.93083089       0.06464764       0.26489675 </v>
    <v>       0.12117854       0.26058926       0.26984611 </v>
    <v>       0.33941074       0.26058926       0.26984611 </v>
    <v>       0.53535236       0.26618324       0.26489675 </v>
    <v>       0.73319572       0.26639142       0.26397880 </v>
    <v>       0.93083089       0.26618324       0.26489675 </v>
    <v>       0.13272304       0.46727696       0.26564207 </v>
    <v>       0.33941074       0.47882146       0.26984611 </v>
    <v>       0.53455393       0.46727696       0.26564207 </v>
    <v>       0.73377845       0.46656672       0.26428964 </v>
    <v>       0.93278829       0.46656672       0.26428964 </v>
    <v>       0.13343327       0.66721171       0.26428964 </v>
    <v>       0.33381676       0.66916911       0.26489675 </v>
    <v>       0.53535236       0.66916911       0.26489675 </v>
    <v>       0.73377845       0.66721171       0.26428964 </v>
    <v>       0.93333334       0.66666666       0.26410282 </v>
    <v>       0.13343327       0.86622155       0.26428964 </v>
    <v>       0.33360858       0.86680428       0.26397880 </v>
    <v>       0.53363534       0.86727067       0.26402895 </v>
    <v>       0.73319572       0.86680428       0.26397880 </v>
    <v>       0.93278829       0.86622155       0.26428964 </v>
    <v>       0.26666666       0.33333332       0.32862567 </v>
   </varray>
  </structure>
  <varray name="forces" >
   <v>       0.15680133       0.00406876       0.03598656 </v>
   <v>      -0.15680133       0.00406876       0.03598656 </v>
   <v>       0.01728268      -0.00997816      -0.00235480 </v>
   <v>       0.00000000       0.01002961      -0.00013442 </v>
   <v>      -0.01728268      -0.00997816      -0.00235480 </v>
   <v>       0.08192432       0.13375956       0.03598656 </v>
   <v>       0.00000000       0.00000000      -0.18829451 </v>
   <v>      -0.08192432       0.13375956       0.03598656 </v>
   <v>       0.00880536       0.01295584       0.00999068 </v>
   <v>      -0.00880536       0.01295584       0.00999068 </v>
   <v>       0.00149294      -0.00086195      -0.00080060 </v>
   <v>      -0.07487701      -0.13782832       0.03598656 </v>
   <v>       0.07487701      -0.13782832       0.03598656 </v>
   <v>      -0.00149294      -0.00086195      -0.00080060 </v>
   <v>       0.00000000       0.02054577      -0.00512483 </v>
   <v>      -0.01779316      -0.01027289      -0.00512483 </v>
   <v>      -0.01562277       0.00114774       0.00999068 </v>
   <v>       0.00000000       0.01995632      -0.00235480 </v>
   <v>       0.01562277       0.00114774       0.00999068 </v>
   <v>       0.01779316      -0.01027289      -0.00512483 </v>
   <v>       0.00000000       0.00172390      -0.00080060 </v>
   <v>      -0.00681741      -0.01410359       0.00999068 </v>
   <v>      -0.00868590      -0.00501480      -0.00013442 </v>
   <v>       0.00868590      -0.00501480      -0.00013442 </v>
   <v>       0.00681741      -0.01410359       0.00999068 </v>
   <v>      -0.00000000      -0.01656805      -0.03915531 </v>
   <v>       0.00100266       0.00309711       0.00150979 </v>
   <v>       0.00508872      -0.00293797      -0.01348400 </v>
   <v>      -0.00508872      -0.00293797      -0.01348400 </v>
   <v>      -0.00100266       0.00309711       0.00150979 </v>
   <v>      -0.00489337      -0.00282519      -0.03250448 </v>
   <v>       0.00489337      -0.00282519      -0.03250448 </v>
   <v>      -0.00218085      -0.00241688       0.00150979 </v>
   <v>       0.00000000       0.00058851      -0.01048246 </v>
   <v>       0.00218085      -0.00241688       0.00150979 </v>
   <v>      -0.01434835       0.00828402      -0.03915531 </v>
   <v>       0.00000000       0.00565037      -0.03250448 </v>
   <v>       0.01434835       0.00828402      -0.03915531 </v>
   <v>       0.00681991       0.00083343      -0.01457016 </v>
   <v>      -0.00681991       0.00083343      -0.01457016 </v>
   <v>      -0.00413172       0.00548950      -0.01457016 </v>
   <v>       0.00318350      -0.00068023       0.00150979 </v>
   <v>      -0.00318350      -0.00068023       0.00150979 </v>
   <v>       0.00413172       0.00548950      -0.01457016 </v>
   <v>       0.00000000       0.00000000      -0.02561893 </v>
   <v>       0.00268818      -0.00632293      -0.01457016 </v>
   <v>      -0.00050966      -0.00029426      -0.01048246 </v>
   <v>       0.00000000       0.00587594      -0.01348400 </v>
   <v>       0.00050966      -0.00029426      -0.01048246 </v>
   <v>      -0.00268818      -0.00632293      -0.01457016 </v>
   <v>      -0.00000000      -0.06214254       0.03250341 </v>
   <v>       0.01286128      -0.02283116       0.00046523 </v>
   <v>       0.00816784      -0.00471571       0.01468382 </v>
   <v>      -0.00816784      -0.00471571       0.01468382 </v>
   <v>      -0.01286128      -0.02283116       0.00046523 </v>
   <v>      -0.05577511      -0.03220177      -0.05964997 </v>
   <v>       0.05577511      -0.03220177      -0.05964997 </v>
   <v>       0.02620301       0.00027739       0.00046523 </v>
   <v>       0.00000000      -0.00062837       0.01750072 </v>
   <v>      -0.02620301       0.00027739       0.00046523 </v>
   <v>      -0.05381702       0.03107127       0.03250341 </v>
   <v>       0.00000000       0.06440355      -0.05964997 </v>
   <v>       0.05381702       0.03107127       0.03250341 </v>
   <v>       0.01076893       0.00283189       0.01391477 </v>
   <v>      -0.01076893       0.00283189       0.01391477 </v>
   <v>      -0.00783695       0.00791022       0.01391477 </v>
   <v>      -0.01334173       0.02255377       0.00046523 </v>
   <v>       0.01334173       0.02255377       0.00046523 </v>
   <v>       0.00783695       0.00791022       0.01391477 </v>
   <v>       0.00000000       0.00000000       0.02234401 </v>
   <v>       0.00293197      -0.01074211       0.01391477 </v>
   <v>       0.00054418       0.00031418       0.01750072 </v>
   <v>       0.00000000       0.00943141       0.01468382 </v>
   <v>      -0.00054418       0.00031418       0.01750072 </v>
   <v>      -0.00293197      -0.01074211       0.01391477 </v>
   <v>       0.00000000       0.00000000       0.20479701 </v>
  </varray>
  <varray name="stress" >
   <v>      10.47860995      -0.00000000      -0.00000000 </v>
   <v>      -0.00000000      10.47860995       0.00000000 </v>
   <v>       0.00000000       0.00000000      -1.56147671 </v>
  </varray>
  <energy>
   <i name="e_fr_energy">   -399.55052496 </i>
   <i name="e_wo_entrp">   -399.53347662 </i>
   <i name="e_0_energy">     -0.03409667 </i>
  </energy>
  <time name="totalsc"> 2944.76 2952.93</time>
 </calculation>
 <calculation>
  <scstep>
   <time name="dav">   55.00   55.15</time>
   <time name="total">  113.99  114.30</time>
   <energy>
    <i name="alphaZ">    724.79310432 </i>
    <i name="ewald"> 146105.55744656 </i>
    <i name="hartreedc">-199193.65819208 </i>
    <i name="XCdc">   2277.43409339 </i>
    <i name="pawpsdc">  75702.26728842 </i>
    <i name="pawaedc"> -75118.12954964 </i>
    <i name="eentropy">     -0.03178381 </i>
    <i name="bandstr"> -12175.27285173 </i>
    <i name="atom">  61277.49441763 </i>
    <i name="e_fr_energy">   -399.54602693 </i>
    <i name="e_wo_entrp">   -399.51424312 </i>
    <i name="e_0_energy">   -399.53013502 </i>
   </energy>
  </scstep>
  <scstep>
   <time name="dav">   56.68   56.84</time>
   <time name="total">  115.79  116.10</time>
   <energy>
    <i name="e_fr_energy">   -399.55732327 </i>
    <i name="e_wo_entrp">   -399.52561092 </i>
    <i name="e_0_energy">   -399.54146710 </i>
   </energy>
  </scstep>
  <scstep>
   <time name="dav">   60.04   60.20</time>
   <time name="total">  119.06  119.39</time>
   <energy>
    <i name="e_fr_energy">   -399.55746381 </i>
    <i name="e_wo_entrp">   -399.52685370 </i>
    <i name="e_0_energy">   -399.54215875 </i>
   </energy>
  </scstep>
  <scstep>
   <time name="dav">   58.06   58.22</time>
   <time name="total">  117.12  117.43</time>
   <energy>
    <i name="e_fr_energy">   -399.55712736 </i>
    <i name="e_wo_entrp">   -399.52559969 </i>
    <i name="e_0_energy">   -399.54136353 </i>
   </energy>
  </scstep>
  <scstep>
   <time name="dav">   57.70   57.85</time>
   <time name="total">  116.69  117.01</time>
   <energy>
    <i name="e_fr_energy">   -399.55704082 </i>
    <i name="e_wo_entrp">   -399.52585577 </i>
    <i name="e_0_energy">   -399.54144830 </i>
   </energy>
  </scstep>
  <scstep>
   <time name="dav">   56.95   57.12</time>
   <time name="total">  115.94  116.26</time>
   <energy>
    <i name="e_fr_energy">   -399.55695301 </i>
    <i name="e_wo_entrp">   -399.52587541 </i>
    <i name="e_0_energy">   -399.54141421 </i>
   </energy>
  </scstep>
  <scstep>
   <time name="dav">   57.62   57.82</time>
   <time name="total">  116.72  117.08</time>
   <energy>
    <i name="e_fr_energy">   -399.55691150 </i>
    <i name="e_wo_entrp">   -399.52585337 </i>
    <i name="e_0_energy">   -399.54138244 </i>
   </energy>
  </scstep>
  <scstep>
   <time name="dav">   59.83   60.00</time>
   <time name="total">  119.13  119.46</time>
   <energy>
    <i name="e_fr_energy">   -399.55686601 </i>
    <i name="e_wo_entrp">   -399.52581901 </i>
    <i name="e_0_energy">   -399.54134251 </i>
   </energy>
  </scstep>
  <scstep>
   <time name="dav">   60.60   60.76</time>
   <time name="total">  119.82  120.14</time>
   <energy>
    <i name="e_fr_energy">   -399.55681305 </i>
    <i name="e_wo_entrp">   -399.52576914 </i>
    <i name="e_0_energy">   -399.54129109 </i>
   </energy>
  </scstep>
  <scstep>
   <time name="dav">   60.80   60.96</time>
   <time name="total">  119.88  120.21</time>
   <energy>
    <i name="e_fr_energy">   -399.55677866 </i>
    <i name="e_wo_entrp">   -399.52574686 </i>
    <i name="e_0_energy">   -399.54126276 </i>
   </energy>
  </scstep>
  <scstep>
   <time name="dav">   58.14   58.31</time>
   <time name="total">  117.49  117.82</time>
   <energy>
    <i name="e_fr_energy">   -399.55675855 </i>
    <i name="e_wo_entrp">   -399.52573396 </i>
    <i name="e_0_energy">   -399.54124626 </i>
   </energy>
  </scstep>
  <scstep>
   <time name="dav">   55.14   55.32</time>
   <time name="total">  114.43  114.78</time>
[...]
       <r>   -65.5119     0.0000     0.0000 </r>
       <r>   -65.2656     0.0000     0.0000 </r>
       <r>   -65.0192     0.0000     0.0000 </r>
       <r>   -64.7729     0.0000     0.0000 </r>
       <r>   -64.5265     0.0000     0.0000 </r>
       <r>   -64.2802     0.0000     0.0000 </r>
       <r>   -64.0338     0.0000     0.0000 </r>
       <r>   -63.7875     0.0000     0.0000 </r>
       <r>   -63.5411     0.0000     0.0000 </r>
       <r>   -63.2948     3.5579     0.8765 </r>
       <r>   -63.0484    97.6054    24.9211 </r>
       <r>   -62.8021     0.3200    25.0000 </r>
       <r>   -62.5558     0.0000    25.0000 </r>
       <r>   -62.3094     0.0000    25.0000 </r>
       <r>   -62.0631     0.0000    25.0000 </r>
       <r>   -61.8167     0.0000    25.0000 </r>
       <r>   -61.5704     0.0000    25.0000 </r>
       <r>   -61.3240     0.0000    25.0000 </r>
       <r>   -61.0777     0.0000    25.0000 </r>
       <r>   -60.8313     0.0000    25.0000 </r>
       <r>   -60.5850     0.0000    25.0000 </r>
       <r>   -60.3386     0.0000    25.0000 </r>
       <r>   -60.0923     0.0000    25.0000 </r>
       <r>   -59.8460     0.0000    25.0000 </r>
       <r>   -59.5996     0.0000    25.0000 </r>
       <r>   -59.3533     0.0000    25.0000 </r>
       <r>   -59.1069     0.0000    25.0000 </r>
       <r>   -58.8606     0.0000    25.0000 </r>
       <r>   -58.6142     0.0000    25.0000 </r>
       <r>   -58.3679     0.0000    25.0000 </r>
       <r>   -58.1215     0.0000    25.0000 </r>
       <r>   -57.8752     0.0000    25.0000 </r>
       <r>   -57.6288     0.0000    25.0000 </r>
       <r>   -57.3825     0.0000    25.0000 </r>
       <r>   -57.1362     0.0000    25.0000 </r>
       <r>   -56.8898     0.0000    25.0000 </r>
       <r>   -56.6435     0.0000    25.0000 </r>
       <r>   -56.3971     0.0000    25.0000 </r>
       <r>   -56.1508     0.0000    25.0000 </r>
       <r>   -55.9044     0.0000    25.0000 </r>
       <r>   -55.6581     0.0000    25.0000 </r>
       <r>   -55.4117     0.0000    25.0000 </r>
       <r>   -55.1654     0.0000    25.0000 </r>
       <r>   -54.9190     0.0000    25.0000 </r>
       <r>   -54.6727     0.0000    25.0000 </r>
       <r>   -54.4263     0.0000    25.0000 </r>
       <r>   -54.1800     0.0000    25.0000 </r>
       <r>   -53.9337     0.0000    25.0000 </r>
       <r>   -53.6873     0.0000    25.0000 </r>
       <r>   -53.4410     0.0000    25.0000 </r>
       <r>   -53.1946     0.0000    25.0000 </r>
       <r>   -52.9483     0.0000    25.0000 </r>
       <r>   -52.7019     0.0000    25.0000 </r>
       <r>   -52.4556     0.0000    25.0000 </r>
       <r>   -52.2092     0.0000    25.0000 </r>
       <r>   -51.9629     0.0000    25.0000 </r>
       <r>   -51.7165     0.0000    25.0000 </r>
       <r>   -51.4702     0.0000    25.0000 </r>
       <r>   -51.2239     0.0000    25.0000 </r>
       <r>   -50.9775     0.0000    25.0000 </r>
       <r>   -50.7312     0.0000    25.0000 </r>
       <r>   -50.4848     0.0000    25.0000 </r>
       <r>   -50.2385     0.0000    25.0000 </r>
       <r>   -49.9921     0.0000    25.0000 </r>
       <r>   -49.7458     0.0000    25.0000 </r>
       <r>   -49.4994     0.0000    25.0000 </r>
       <r>   -49.2531     0.0000    25.0000 </r>
       <r>   -49.0067     0.0000    25.0000 </r>
       <r>   -48.7604     0.0000    25.0000 </r>
       <r>   -48.5141     0.0000    25.0000 </r>
       <r>   -48.2677     0.0000    25.0000 </r>
       <r>   -48.0214     0.0000    25.0000 </r>
       <r>   -47.7750     0.0000    25.0000 </r>
       <r>   -47.5287     0.0000    25.0000 </r>
       <r>   -47.2823     0.0000    25.0000 </r>
       <r>   -47.0360     0.0000    25.0000 </r>
       <r>   -46.7896     0.0000    25.0000 </r>
       <r>   -46.5433     0.0000    25.0000 </r>
       <r>   -46.2969     0.0000    25.0000 </r>
       <r>   -46.0506     0.0000    25.0000 </r>
       <r>   -45.8043     0.0000    25.0000 </r>
       <r>   -45.5579     0.0000    25.0000 </r>
       <r>   -45.3116     0.0000    25.0000 </r>
       <r>   -45.0652     0.0000    25.0000 </r>
       <r>   -44.8189     0.0000    25.0000 </r>
       <r>   -44.5725     0.0000    25.0000 </r>
       <r>   -44.3262     0.0000    25.0000 </r>
       <r>   -44.0798     0.0000    25.0000 </r>
       <r>   -43.8335     0.0000    25.0000 </r>
       <r>   -43.5871     0.0000    25.0000 </r>
       <r>   -43.3408     0.0000    25.0000 </r>
       <r>   -43.0945     0.0000    25.0000 </r>
       <r>   -42.8481     0.0000    25.0000 </r>
       <r>   -42.6018     0.0000    25.0000 </r>
       <r>   -42.3554     0.0000    25.0000 </r>
       <r>   -42.1091     0.0000    25.0000 </r>
       <r>   -41.8627     0.0000    25.0000 </r>
       <r>   -41.6164     0.0000    25.0000 </r>
       <r>   -41.3700     0.0000    25.0000 </r>
       <r>   -41.1237     0.0000    25.0000 </r>
       <r>   -40.8773     0.0000    25.0000 </r>
       <r>   -40.6310     0.0000    25.0000 </r>
       <r>   -40.3847     0.0000    25.0000 </r>
       <r>   -40.1383     0.0000    25.0000 </r>
       <r>   -39.8920     0.0000    25.0000 </r>
       <r>   -39.6456     0.0000    25.0000 </r>
       <r>   -39.3993     0.0000    25.0000 </r>
       <r>   -39.1529     0.0000    25.0000 </r>
       <r>   -38.9066     0.0000    25.0000 </r>
       <r>   -38.6602     0.0000    25.0000 </r>
       <r>   -38.4139     0.0000    25.0000 </r>
       <r>   -38.1675     0.0000    25.0000 </r>
       <r>   -37.9212     0.0000    25.0000 </r>
       <r>   -37.6748     0.0383    25.0094 </r>
       <r>   -37.4285    73.4808    43.1111 </r>
       <r>   -37.1822   200.4495    92.4909 </r>
       <r>   -36.9358    30.4817   100.0000 </r>
       <r>   -36.6895     0.0000   100.0000 </r>
       <r>   -36.4431     0.0000   100.0000 </r>
       <r>   -36.1968     0.0000   100.0000 </r>
       <r>   -35.9504     0.0000   100.0000 </r>
       <r>   -35.7041     0.0000   100.0000 </r>
       <r>   -35.4577     0.0000   100.0000 </r>
       <r>   -35.2114     0.0000   100.0000 </r>
       <r>   -34.9650     0.0000   100.0000 </r>
       <r>   -34.7187     0.0000   100.0000 </r>
       <r>   -34.4724     0.0000   100.0000 </r>
       <r>   -34.2260     0.0000   100.0000 </r>
       <r>   -33.9797     0.0000   100.0000 </r>
       <r>   -33.7333     0.0000   100.0000 </r>
       <r>   -33.4870     0.0000   100.0000 </r>
       <r>   -33.2406     0.0000   100.0000 </r>
       <r>   -32.9943     0.0000   100.0000 </r>
       <r>   -32.7479     0.0000   100.0000 </r>
       <r>   -32.5016     0.0000   100.0000 </r>
       <r>   -32.2552     0.0000   100.0000 </r>
       <r>   -32.0089     0.0000   100.0000 </r>
       <r>   -31.7626     0.0000   100.0000 </r>
       <r>   -31.5162     0.0000   100.0000 </r>
       <r>   -31.2699     0.0000   100.0000 </r>
       <r>   -31.0235     0.0000   100.0000 </r>
       <r>   -30.7772     0.0000   100.0000 </r>
       <r>   -30.5308     0.0000   100.0000 </r>
       <r>   -30.2845     0.0000   100.0000 </r>
       <r>   -30.0381     0.0000   100.0000 </r>
       <r>   -29.7918     0.0000   100.0000 </r>
       <r>   -29.5454     0.0000   100.0000 </r>
       <r>   -29.2991     0.0000   100.0000 </r>
       <r>   -29.0528     0.0000   100.0000 </r>
       <r>   -28.8064     0.0000   100.0000 </r>
       <r>   -28.5601     0.0000   100.0000 </r>
       <r>   -28.3137     0.0000   100.0000 </r>
       <r>   -28.0674     0.0000   100.0000 </r>
       <r>   -27.8210     0.0000   100.0000 </r>
       <r>   -27.5747     0.0000   100.0000 </r>
       <r>   -27.3283     0.0000   100.0000 </r>
       <r>   -27.0820     0.0000   100.0000 </r>
       <r>   -26.8356     0.0000   100.0000 </r>
       <r>   -26.5893     0.0000   100.0000 </r>
       <r>   -26.3430     0.0000   100.0000 </r>
       <r>   -26.0966     0.0000   100.0000 </r>
       <r>   -25.8503     0.0000   100.0000 </r>
       <r>   -25.6039     0.0000   100.0000 </r>
       <r>   -25.3576     0.0000   100.0000 </r>
       <r>   -25.1112     0.0000   100.0000 </r>
       <r>   -24.8649     0.0000   100.0000 </r>
       <r>   -24.6185     0.0000   100.0000 </r>
       <r>   -24.3722     0.0000   100.0000 </r>
       <r>   -24.1258     0.0000   100.0000 </r>
       <r>   -23.8795     0.0000   100.0000 </r>
       <r>   -23.6331     0.0000   100.0000 </r>
       <r>   -23.3868     0.0000   100.0000 </r>
       <r>   -23.1405     0.0000   100.0000 </r>
       <r>   -22.8941     0.0000   100.0000 </r>
       <r>   -22.6478     0.0000   100.0000 </r>
       <r>   -22.4014     0.0000   100.0000 </r>
       <r>   -22.1551     0.0000   100.0000 </r>
       <r>   -21.9087     0.0000   100.0000 </r>
       <r>   -21.6624     0.0000   100.0000 </r>
       <r>   -21.4160     0.0000   100.0000 </r>
       <r>   -21.1697     0.0000   100.0000 </r>
       <r>   -20.9233     0.0000   100.0000 </r>
       <r>   -20.6770     0.0000   100.0000 </r>
       <r>   -20.4307     0.0000   100.0000 </r>
       <r>   -20.1843     0.0000   100.0000 </r>
       <r>   -19.9380     0.0000   100.0000 </r>
       <r>   -19.6916     0.0000   100.0000 </r>
       <r>   -19.4453     0.0000   100.0000 </r>
       <r>   -19.1989     0.0000   100.0000 </r>
       <r>   -18.9526     0.0000   100.0000 </r>
       <r>   -18.7062     0.0000   100.0000 </r>
       <r>   -18.4599     0.0000   100.0000 </r>
       <r>   -18.2135     0.0000   100.0000 </r>
       <r>   -17.9672     0.0000   100.0000 </r>
       <r>   -17.7209     0.0000   100.0000 </r>
       <r>   -17.4745     0.0000   100.0000 </r>
       <r>   -17.2282     0.0000   100.0000 </r>
       <r>   -16.9818     0.0000   100.0000 </r>
       <r>   -16.7355     0.0487   100.0120 </r>
       <r>   -16.4891     4.0423   101.0078 </r>
       <r>   -16.2428     4.9722   102.2327 </r>
       <r>   -15.9964     7.0606   103.9720 </r>
       <r>   -15.7501     8.7211   106.1205 </r>
       <r>   -15.5037    10.5711   108.7246 </r>
       <r>   -15.2574    14.7055   112.3472 </r>
       <r>   -15.0111    22.9406   117.9985 </r>
       <r>   -14.7647    29.4098   125.2435 </r>
       <r>   -14.5184    47.8673   137.0354 </r>
       <r>   -14.2720    50.6845   149.5213 </r>
       <r>   -14.0257     1.9431   150.0000 </r>
       <r>   -13.7793     0.0000   150.0000 </r>
       <r>   -13.5330     0.0000   150.0000 </r>
       <r>   -13.2866     0.0000   150.0000 </r>
       <r>   -13.0403     0.0000   150.0000 </r>
       <r>   -12.7939     0.0000   150.0000 </r>
       <r>   -12.5476     0.0000   150.0000 </r>
       <r>   -12.3013     0.0000   150.0000 </r>
       <r>   -12.0549     0.0000   150.0000 </r>
       <r>   -11.8086     0.0000   150.0000 </r>
       <r>   -11.5622     0.0000   150.0000 </r>
       <r>   -11.3159     0.0000   150.0000 </r>
       <r>   -11.0695     0.0000   150.0000 </r>
       <r>   -10.8232     0.0000   150.0000 </r>
       <r>   -10.5768     0.0000   150.0000 </r>
       <r>   -10.3305     0.0000   150.0000 </r>
       <r>   -10.0841     0.0000   150.0000 </r>
       <r>    -9.8378     0.0000   150.0000 </r>
       <r>    -9.5915     0.0000   150.0000 </r>
       <r>    -9.3451     0.0000   150.0000 </r>
       <r>    -9.0988     0.0000   150.0000 </r>
       <r>    -8.8524     0.0000   150.0000 </r>
       <r>    -8.6061     3.7782   150.9307 </r>
       <r>    -8.3597     3.9929   151.9144 </r>
       <r>    -8.1134    11.5168   154.7515 </r>
       <r>    -7.8670    22.9635   160.4084 </r>
       <r>    -7.6207    39.7484   170.2003 </r>
       <r>    -7.3743    50.4041   182.6171 </r>
       <r>    -7.1280    19.9485   187.5313 </r>
       <r>    -6.8816     9.5015   189.8720 </r>
       <r>    -6.6353    12.2907   192.8998 </r>
       <r>    -6.3890    26.1347   199.3379 </r>
       <r>    -6.1426    50.6349   211.8116 </r>
       <r>    -5.8963    26.6218   218.3698 </r>
       <r>    -5.6499    44.7483   229.3933 </r>
       <r>    -5.4036    43.5560   240.1232 </r>
       <r>    -5.1572    25.1849   246.3274 </r>
       <r>    -4.9109    24.8142   252.4402 </r>
       <r>    -4.6645    16.0382   256.3912 </r>
       <r>    -4.4182    34.4951   264.8889 </r>
       <r>    -4.1718    52.3132   277.7760 </r>
       <r>    -3.9255    31.4398   285.5211 </r>
       <r>    -3.6792    31.0169   293.1619 </r>
       <r>    -3.4328    29.6851   300.4747 </r>
       <r>    -3.1865    36.1454   309.3790 </r>
       <r>    -2.9401    34.6239   317.9084 </r>
       <r>    -2.6938    26.8385   324.5200 </r>
       <r>    -2.4474    14.5025   328.0926 </r>
       <r>    -2.2011     7.7427   330.0000 </r>
       <r>    -1.9547     0.0000   330.0000 </r>
       <r>    -1.7084     0.0000   330.0000 </r>
       <r>    -1.4620     0.0000   330.0000 </r>
       <r>    -1.2157     0.0000   330.0000 </r>
       <r>    -0.9694     2.4459   330.6025 </r>
       <r>    -0.7230     1.6134   331.0000 </r>
       <r>    -0.4767     8.8834   333.1884 </r>
       <r>    -0.2303    37.3780   342.3963 </r>
       <r>     0.0160    49.0255   354.4735 </r>
       <r>     0.2624    52.4340   367.3904 </r>
       <r>     0.5087    55.7560   381.1257 </r>
       <r>     0.7551    45.4894   392.3318 </r>
       <r>     1.0014    27.4426   399.0921 </r>
       <r>     1.2478    25.7867   405.4446 </r>
       <r>     1.4941    15.1420   409.1747 </r>
       <r>     1.7404    18.3210   413.6880 </r>
       <r>     1.9868    35.9838   422.5525 </r>
       <r>     2.2331    17.5787   426.8829 </r>
       <r>     2.4795    10.3781   429.4395 </r>
       <r>     2.7258     6.2744   430.9852 </r>
       <r>     2.9722     0.0687   431.0021 </r>
       <r>     3.2185     4.1121   432.0151 </r>
       <r>     3.4649     9.1127   434.2600 </r>
       <r>     3.7112     6.6034   435.8867 </r>
       <r>     3.9576     0.4597   436.0000 </r>
       <r>     4.2039     0.0000   436.0000 </r>
       <r>     4.4502     0.0000   436.0000 </r>
       <r>     4.6966     0.0000   436.0000 </r>
       <r>     4.9429     0.0000   436.0000 </r>
       <r>     5.1893     0.0000   436.0000 </r>
       <r>     5.4356     0.0000   436.0000 </r>
       <r>     5.6820     0.0000   436.0000 </r>
       <r>     5.9283     0.0000   436.0000 </r>
       <r>     6.1747     0.0000   436.0000 </r>
       <r>     6.4210     0.0000   436.0000 </r>
       <r>     6.6674     0.0000   436.0000 </r>
       <r>     6.9137     0.0000   436.0000 </r>
       <r>     7.1600     0.0000   436.0000 </r>
      </set>
     </set>
    </array>
   </total>
  </dos>
 </calculation>
 <structure name="finalpos" >
  <crystal>
   <varray name="basis" >
    <v>      15.62500000       0.00000000       0.00000000 </v>
    <v>      -7.81250000      13.53164693       0.00000000 </v>
    <v>       0.00000000       0.00000000      20.00000000 </v>
   </varray>
   <i name="volume">   4228.63966688 </i>
   <varray name="rec_basis" >
    <v>       0.06400000       0.03695042      -0.00000000 </v>
    <v>       0.00000000       0.07390083       0.00000000 </v>
    <v>       0.00000000      -0.00000000       0.05000000 </v>
   </varray>
  </crystal>
  <varray name="positions" >
   <v>       0.06646537       0.13192793       0.18714209 </v>
   <v>       0.26546256       0.13192793       0.18714209 </v>
   <v>       0.46676962       0.13323036       0.18544635 </v>
   <v>       0.66669753       0.13339506       0.18474361 </v>
   <v>       0.86646074       0.13323036       0.18544635 </v>
   <v>       0.06646537       0.33453742       0.18714209 </v>
   <v>       0.26666666       0.33333332       0.18968720 </v>
   <v>       0.46807205       0.33453742       0.18714209 </v>
   <v>       0.66713373       0.33347605       0.18502007 </v>
   <v>       0.86634232       0.33347605       0.18502007 </v>
   <v>       0.06649086       0.53350912       0.18568056 </v>
   <v>       0.26546256       0.53353461       0.18714209 </v>
   <v>       0.46807205       0.53353461       0.18714209 </v>
   <v>       0.66701826       0.53350912       0.18568056 </v>
   <v>       0.86680100       0.53360201       0.18497335 </v>
   <v>       0.06639797       0.73319897       0.18497335 </v>
   <v>       0.26652393       0.73365766       0.18502007 </v>
   <v>       0.46676962       0.73353923       0.18544635 </v>
   <v>       0.66713373       0.73365766       0.18502007 </v>
   <v>       0.86680100       0.73319897       0.18497335 </v>
   <v>       0.06649086       0.93298172       0.18568056 </v>
   <v>       0.26652393       0.93286625       0.18502007 </v>
   <v>       0.46660492       0.93330245       0.18474361 </v>
   <v>       0.66669753       0.93330245       0.18474361 </v>
   <v>       0.86634232       0.93286625       0.18502007 </v>
   <v>       0.13348388       0.06696774       0.10705773 </v>
   <v>       0.33286896       0.06729918       0.10666407 </v>
   <v>       0.53313680       0.06686320       0.10578945 </v>
   <v>       0.73372642       0.06686320       0.10578945 </v>
   <v>       0.93443023       0.06729918       0.10666407 </v>
   <v>       0.13566190       0.26783094       0.11016061 </v>
   <v>       0.33216906       0.26783094       0.11016061 </v>
   <v>       0.53270082       0.26713103       0.10666407 </v>
   <v>       0.73339295       0.26678588       0.10560094 </v>
   <v>       0.93443023       0.26713103       0.10666407 </v>
   <v>       0.13348388       0.46651612       0.10705773 </v>
   <v>       0.33216906       0.46433810       0.11016061 </v>
   <v>       0.53303226       0.46651612       0.10705773 </v>
   <v>       0.73327567       0.46692637       0.10598753 </v>
   <v>       0.93365072       0.46692637       0.10598753 </v>
   <v>       0.13307362       0.66634927       0.10598753 </v>
   <v>       0.33286896       0.66556977       0.10666407 </v>
   <v>       0.53270082       0.66556977       0.10666407 </v>
   <v>       0.73327567       0.66634927       0.10598753 </v>
   <v>       0.93333334       0.66666666       0.10569023 </v>
   <v>       0.13307362       0.86672433       0.10598753 </v>
   <v>       0.33321411       0.86660705       0.10560094 </v>
   <v>       0.53313680       0.86627358       0.10578945 </v>
   <v>       0.73339295       0.86660705       0.10560094 </v>
   <v>       0.93365072       0.86672433       0.10598753 </v>
   <v>       0.13232537       0.06465072       0.26600232 </v>
   <v>       0.33357204       0.06459867       0.26482465 </v>
   <v>       0.53364132       0.06635868       0.26406099 </v>
   <v>       0.73271737       0.06635868       0.26406099 </v>
   <v>       0.93102665       0.06459867       0.26482465 </v>
   <v>       0.12146724       0.26073361       0.26970231 </v>
   <v>       0.33926639       0.26073361       0.26970231 </v>
   <v>       0.53540132       0.26642796       0.26482465 </v>
   <v>       0.73321976       0.26643951       0.26406408 </v>
   <v>       0.93102665       0.26642796       0.26482465 </v>
   <v>       0.13232537       0.46767463       0.26600232 </v>
   <v>       0.33926639       0.47853276       0.26970231 </v>
   <v>       0.53534927       0.46767463       0.26600232 </v>
   <v>       0.73402659       0.46671480       0.26430712 </v>
   <v>       0.93268822       0.46671480       0.26430712 </v>
   <v>       0.13328520       0.66731177       0.26430712 </v>
   <v>       0.33357204       0.66897335       0.26482465 </v>
   <v>       0.53540132       0.66897335       0.26482465 </v>
   <v>       0.73402659       0.66731177       0.26430712 </v>
   <v>       0.93333334       0.66666666       0.26421351 </v>
   <v>       0.13328520       0.86597341       0.26430712 </v>
   <v>       0.33356049       0.86678024       0.26406408 </v>
   <v>       0.53364132       0.86728263       0.26406099 </v>
   <v>       0.73321976       0.86678024       0.26406408 </v>
   <v>       0.93268822       0.86597341       0.26430712 </v>
   <v>       0.26666666       0.33333332       0.32942482 </v>
  </varray>
 </structure>
</modeling>
