<?xml version="1.0" encoding="ISO-8859-1"?>
<modeling>
 <generator>
  <i name="program" type="string">vasp </i>
  <i name="version" type="string">5.4.4.18Apr17-6-g9f103f2a35  </i>
  <i name="subversion" type="string">(build Dec 13 2020 03:13:36) complex            parallel </i>
  <i name="platform" type="string">LinuxIFC </i>
  <i name="date" type="string">2021 01 30 </i>
  <i name="time" type="string">16:46:43 </i>
 </generator>
 <incar>
  <i type="int" name="ISTART">     0</i>
  <i type="string" name="PREC">accurate</i>
  <i type="string" name="ALGO"> NORMAL</i>
  <i type="int" name="ISPIN">     2</i>
  <i type="int" name="NELM">   100</i>
  <i type="int" name="NELMDL">   -10</i>
  <i type="int" name="IBRION">     2</i>
  <i type="int" name="NFREE">    10</i>
  <i name="EDIFF">      0.00000010</i>
  <i name="EDIFFG">     -0.01000000</i>
  <i type="int" name="NSW">   200</i>
  <i type="int" name="ISIF">     2</i>
  <i type="int" name="ISYM">     2</i>
  <i name="ENCUT">    500.00000000</i>
  <i name="POTIM">      0.12500000</i>
  <i type="string" name="LREAL"> AUTO</i>
  <v name="ROPT">     -0.00020000     -0.00020000     -0.00020000****************</v>
  <i type="logical" name="LPLANE"> T  </i>
  <i type="int" name="ISMEAR">     0</i>
  <i name="SIGMA">      0.05000000</i>
  <i type="int" name="NWRITE">     1</i>
  <i type="logical" name="LWAVE"> F  </i>
  <i type="logical" name="LCHARG"> F  </i>
  <i type="logical" name="LVTOT"> F  </i>
  <v type="int" name="KPOINT_BSE">    -1     0     0     0</v>
  <i type="int" name="NELM">   100</i>
  <i type="string" name="GGA"> MK</i>
  <i type="int" name="VOSKOWN">     1</i>
  <i name="PARAM1">      0.12340000</i>
  <i name="PARAM2">      1.00000000</i>
  <i type="logical" name="LUSE_VDW"> T  </i>
  <i name="AGGAC">      0.00000000</i>
  <i type="logical" name="LDIPOL"> T  </i>
  <i type="int" name="IDIPOL">     3</i>
 </incar>
 <structure name="primitive_cell" >
  <crystal>
   <varray name="basis" >
    <v>      15.62500000       0.00000000       0.00000000 </v>
    <v>      -7.81250000      13.53164693       0.00000000 </v>
    <v>       0.00000000       0.00000000      20.00000000 </v>
   </varray>
   <i name="volume">   4228.63966688 </i>
   <varray name="rec_basis" >
    <v>       0.06400000       0.03695042       0.00000000 </v>
    <v>       0.00000000       0.07390083       0.00000000 </v>
    <v>       0.00000000       0.00000000       0.05000000 </v>
   </varray>
  </crystal>
  <varray name="positions" >
   <v>       0.06664310       0.13341102       0.18598534 </v>
   <v>       0.13326508       0.26664695       0.10685809 </v>
   <v>      -0.06666501       0.06667181       0.10690262 </v>
   <v>      -0.06668279       0.06666217       0.26508323 </v>
   <v>       0.13343635       0.26671701       0.26511314 </v>
   <v>       0.13334339       0.06668676       0.10687518 </v>
   <v>       0.13333943       0.06667884       0.26511591 </v>
   <v>       0.26633918       0.33267835       0.18611857 </v>
   <v>       0.06669789       0.33334893       0.18604429 </v>
   <v>      -0.13333632       0.13332062       0.18598055 </v>
   <v>      -0.13332037      -0.06667965       0.18597705 </v>
   <v>       0.06666390      -0.06667221       0.18597842 </v>
   <v>       0.26676792       0.13341102       0.18598534 </v>
   <v>      -0.06665996       0.26667001       0.10688108 </v>
   <v>      -0.06664998       0.26667500       0.26511025 </v>
   <v>       0.33328067       0.26671701       0.26511314 </v>
   <v>      -0.06666829      -0.13333172       0.10689413 </v>
   <v>      -0.06666949      -0.13333052       0.26508684 </v>
   <v>       0.33338189       0.26664695       0.10685809 </v>
   <v>       0.13326508       0.46661811       0.10685809 </v>
   <v>       0.33333334       0.46666666       0.10699272 </v>
   <v>       0.13343635       0.46671932       0.26511314 </v>
   <v>      -0.26666729       0.06666729       0.10689076 </v>
   <v>      -0.26666849       0.06666849       0.26509006 </v>
   <v>      -0.26666217      -0.13331721       0.26508323 </v>
   <v>      -0.26667181      -0.13333500       0.10690262 </v>
   <v>       0.33333683       0.06667181       0.10690262 </v>
   <v>       0.33334497       0.06666217       0.26508323 </v>
   <v>       0.13333659      -0.13333172       0.10689413 </v>
   <v>       0.13333898      -0.13333052       0.26508684 </v>
   <v>       0.33333334       0.46666666       0.26959512 </v>
   <v>      -0.13333632       0.33334305       0.18598055 </v>
   <v>      -0.33332064      -0.06666371       0.18598055 </v>
   <v>       0.46665105       0.33334893       0.18604429 </v>
   <v>      -0.13332782      -0.26666392       0.18597842 </v>
   <v>       0.26664072      -0.06667965       0.18597705 </v>
   <v>       0.26633918      -0.46633920       0.18611857 </v>
   <v>       0.33333334       0.46666666       0.37483234 </v>
   <v>       0.06664310      -0.46676794       0.18598534 </v>
   <v>      -0.33333334       0.13333332       0.18598822 </v>
   <v>      -0.33341104      -0.26664312       0.18598534 </v>
   <v>       0.46665693       0.13332062       0.18598055 </v>
   <v>       0.06666390      -0.26666392       0.18597842 </v>
   <v>       0.46732163      -0.46633920       0.18611857 </v>
   <v>      -0.06666501       0.46666317       0.10690262 </v>
   <v>      -0.06668279       0.46665502       0.26508323 </v>
   <v>      -0.26666729       0.26666540       0.10689076 </v>
   <v>      -0.26666849       0.26666300       0.26509006 </v>
   <v>      -0.46671701       0.46671932       0.26511314 </v>
   <v>      -0.46664696       0.46661811       0.10685809 </v>
   <v>      -0.46667001       0.26667001       0.10688108 </v>
   <v>      -0.46667500       0.26667500       0.26511025 </v>
   <v>      -0.26668676      -0.33334339       0.10687518 </v>
   <v>      -0.26667885      -0.33333943       0.26511591 </v>
   <v>      -0.06666829      -0.33333659       0.10689413 </v>
   <v>      -0.06666949      -0.33333899       0.26508684 </v>
   <v>       0.33328067      -0.33343636       0.26511314 </v>
   <v>      -0.46667001      -0.13334004       0.10688108 </v>
   <v>      -0.46667500      -0.13335002       0.26511025 </v>
   <v>       0.33338189      -0.33326508       0.10685809 </v>
   <v>       0.33334497      -0.13331721       0.26508323 </v>
   <v>       0.33333683      -0.13333500       0.10690262 </v>
   <v>      -0.46671701      -0.33343636       0.26511314 </v>
   <v>       0.13334339      -0.33334339       0.10687518 </v>
   <v>       0.13333943      -0.33333943       0.26511591 </v>
   <v>      -0.46666541       0.06666729       0.10689076 </v>
   <v>      -0.46666300       0.06666849       0.26509006 </v>
   <v>      -0.46664696      -0.33326508       0.10685809 </v>
   <v>      -0.33332064       0.33334305       0.18598055 </v>
   <v>       0.46665105      -0.26669791       0.18604429 </v>
   <v>      -0.13332037      -0.46664074       0.18597705 </v>
   <v>       0.26676792      -0.26664312       0.18598534 </v>
   <v>      -0.33341104      -0.46676794       0.18598534 </v>
   <v>       0.46665693      -0.06666371       0.18598055 </v>
   <v>      -0.26666217       0.46665502       0.26508323 </v>
   <v>      -0.26667181       0.46666317       0.10690262 </v>
  </varray>
 </structure>
 <varray name="primitive_index" >
  <v type="int" >        1 </v>
  <v type="int" >       31 </v>
  <v type="int" >       30 </v>
  <v type="int" >       55 </v>
  <v type="int" >       56 </v>
  <v type="int" >       26 </v>
  <v type="int" >       51 </v>
  <v type="int" >        7 </v>
  <v type="int" >        6 </v>
  <v type="int" >        5 </v>
  <v type="int" >       25 </v>
  <v type="int" >       21 </v>
  <v type="int" >        2 </v>
  <v type="int" >       35 </v>
  <v type="int" >       60 </v>
  <v type="int" >       57 </v>
  <v type="int" >       50 </v>
  <v type="int" >       75 </v>
  <v type="int" >       32 </v>
  <v type="int" >       36 </v>
  <v type="int" >       37 </v>
  <v type="int" >       61 </v>
  <v type="int" >       29 </v>
  <v type="int" >       54 </v>
  <v type="int" >       74 </v>
  <v type="int" >       49 </v>
  <v type="int" >       27 </v>
  <v type="int" >       52 </v>
  <v type="int" >       46 </v>
  <v type="int" >       71 </v>
  <v type="int" >       62 </v>
  <v type="int" >       10 </v>
  <v type="int" >       24 </v>
  <v type="int" >        8 </v>
  <v type="int" >       20 </v>
  <v type="int" >       22 </v>
  <v type="int" >       12 </v>
  <v type="int" >       76 </v>
  <v type="int" >       11 </v>
  <v type="int" >        4 </v>
  <v type="int" >       19 </v>
  <v type="int" >        3 </v>
  <v type="int" >       16 </v>
  <v type="int" >       13 </v>
  <v type="int" >       40 </v>
  <v type="int" >       65 </v>
  <v type="int" >       34 </v>
  <v type="int" >       59 </v>
  <v type="int" >       63 </v>
  <v type="int" >       38 </v>
  <v type="int" >       33 </v>
  <v type="int" >       58 </v>
  <v type="int" >       44 </v>
  <v type="int" >       69 </v>
  <v type="int" >       45 </v>
  <v type="int" >       70 </v>
  <v type="int" >       67 </v>
  <v type="int" >       48 </v>
  <v type="int" >       73 </v>
  <v type="int" >       42 </v>
  <v type="int" >       72 </v>
  <v type="int" >       47 </v>
  <v type="int" >       68 </v>
  <v type="int" >       41 </v>
  <v type="int" >       66 </v>
  <v type="int" >       28 </v>
  <v type="int" >       53 </v>
  <v type="int" >       43 </v>
  <v type="int" >        9 </v>
  <v type="int" >       18 </v>
  <v type="int" >       15 </v>
  <v type="int" >       17 </v>
  <v type="int" >       14 </v>
  <v type="int" >       23 </v>
  <v type="int" >       64 </v>
  <v type="int" >       39 </v>
 </varray>
 <kpoints>
  <generation param="Monkhorst-Pack">
   <v type="int" name="divisions">       3        3        1 </v>
   <v name="usershift">      0.00000000       0.00000000       0.00000000 </v>
   <v name="genvec1">      0.33333333       0.00000000       0.00000000 </v>
   <v name="genvec2">      0.00000000       0.33333333       0.00000000 </v>
   <v name="genvec3">      0.00000000       0.00000000       1.00000000 </v>
   <v name="shift">      0.00000000       0.00000000       0.00000000 </v>
  </generation>
  <varray name="kpointlist" >
   <v>       0.00000000       0.00000000       0.00000000 </v>
   <v>       0.33333333      -0.00000000       0.00000000 </v>
   <v>       0.33333333       0.33333333       0.00000000 </v>
  </varray>
  <varray name="weights" >
   <v>       0.11111111 </v>
   <v>       0.66666667 </v>
   <v>       0.22222222 </v>
  </varray>
 </kpoints>
 <parameters>
  <separator name="general" >
   <i type="string" name="SYSTEM">unknown system</i>
   <i type="logical" name="LCOMPAT"> F  </i>
  </separator>
  <separator name="electronic" >
   <i type="string" name="PREC">accura</i>
   <i name="ENMAX">    500.00000000</i>
   <i name="ENAUG">    446.01400000</i>
   <i name="EDIFF">      0.00000010</i>
   <i type="int" name="IALGO">    38</i>
   <i type="int" name="IWAVPR">    11</i>
   <i type="int" name="NBANDS">   440</i>
   <i name="NELECT">    660.00000000</i>
   <i type="int" name="TURBO">     0</i>
   <i type="int" name="IRESTART">     0</i>
   <i type="int" name="NREBOOT">     0</i>
   <i type="int" name="NMIN">     0</i>
   <i name="EREF">      0.00000000</i>
   <separator name="electronic smearing" >
    <i type="int" name="ISMEAR">     0</i>
    <i name="SIGMA">      0.05000000</i>
    <i name="KSPACING">      0.50000000</i>
    <i type="logical" name="KGAMMA"> T  </i>
   </separator>
   <separator name="electronic projectors" >
    <i type="logical" name="LREAL"> T  </i>
    <v name="ROPT">     -0.00020000     -0.00020000     -0.00020000</v>
    <i type="int" name="LMAXPAW">  -100</i>
    <i type="int" name="LMAXMIX">     2</i>
    <i type="logical" name="NLSPLINE"> F  </i>
   </separator>
   <separator name="electronic startup" >
    <i type="int" name="ISTART">     0</i>
    <i type="int" name="ICHARG">     2</i>
    <i type="int" name="INIWAV">     1</i>
   </separator>
   <separator name="electronic spin" >
    <i type="int" name="ISPIN">     2</i>
    <i type="logical" name="LNONCOLLINEAR"> F  </i>
    <v name="MAGMOM">      1.00000000      1.00000000      1.00000000      1.00000000      1.00000000      1.00000000      1.00000000      1.00000000      1.00000000      1.00000000      1.00000000      1.00000000      1.00000000      1.00000000      1.00000000      1.00000000      1.00000000      1.00000000      1.00000000      1.00000000
      1.00000000      1.00000000      1.00000000      1.00000000      1.00000000      1.00000000      1.00000000      1.00000000      1.00000000      1.00000000      1.00000000      1.00000000      1.00000000      1.00000000      1.00000000      1.00000000      1.00000000      1.00000000      1.00000000      1.00000000
      1.00000000      1.00000000      1.00000000      1.00000000      1.00000000      1.00000000      1.00000000      1.00000000      1.00000000      1.00000000      1.00000000      1.00000000      1.00000000      1.00000000      1.00000000      1.00000000      1.00000000      1.00000000      1.00000000      1.00000000
      1.00000000      1.00000000      1.00000000      1.00000000      1.00000000      1.00000000      1.00000000      1.00000000      1.00000000      1.00000000      1.00000000      1.00000000      1.00000000      1.00000000      1.00000000      1.00000000</v>
    <i name="NUPDOWN">     -1.00000000</i>
    <i type="logical" name="LSORBIT"> F  </i>
    <v name="SAXIS">      0.00000000      0.00000000      1.00000000</v>
    <i type="logical" name="LSPIRAL"> F  </i>
    <v name="QSPIRAL">      0.00000000      0.00000000      0.00000000</v>
    <i type="logical" name="LZEROZ"> F  </i>
   </separator>
   <separator name="electronic exchange-correlation" >
    <i type="logical" name="LASPH"> F  </i>
    <i type="logical" name="LMETAGGA"> F  </i>
   </separator>
   <separator name="electronic convergence" >
    <i type="int" name="NELM">   100</i>
    <i type="int" name="NELMDL">   -10</i>
    <i type="int" name="NELMIN">     2</i>
    <i name="ENINI">    500.00000000</i>
    <separator name="electronic convergence detail" >
     <i type="logical" name="LDIAG"> T  </i>
     <i type="logical" name="LSUBROT"> F  </i>
     <i name="WEIMIN">      0.00100000</i>
     <i name="EBREAK">      0.00000000</i>
     <i name="DEPER">      0.30000000</i>
     <i type="int" name="NRMM">     4</i>
     <i name="TIME">      0.40000000</i>
    </separator>
   </separator>
   <separator name="electronic mixer" >
    <i name="AMIX">      0.40000000</i>
    <i name="BMIX">      1.00000000</i>
    <i name="AMIN">      0.10000000</i>
    <i name="AMIX_MAG">      1.60000000</i>
    <i name="BMIX_MAG">      1.00000000</i>
    <separator name="electronic mixer details" >
     <i type="int" name="IMIX">     4</i>
     <i type="logical" name="MIXFIRST"> F  </i>
     <i type="int" name="MAXMIX">   -45</i>
     <i name="WC">    100.00000000</i>
     <i type="int" name="INIMIX">     1</i>
     <i type="int" name="MIXPRE">     1</i>
     <i type="int" name="MREMOVE">     5</i>
    </separator>
   </separator>
   <separator name="electronic dipolcorrection" >
    <i type="logical" name="LDIPOL"> T  </i>
    <i type="logical" name="LMONO"> F  </i>
    <i type="int" name="IDIPOL">     3</i>
    <i name="EPSILON">      1.00000000</i>
    <v name="DIPOL">   -100.00000000   -100.00000000   -100.00000000</v>
    <i name="EFIELD">      0.00000000</i>
   </separator>
  </separator>
  <separator name="grids" >
   <i type="int" name="NGX">   120</i>
   <i type="int" name="NGY">   120</i>
   <i type="int" name="NGZ">   150</i>
   <i type="int" name="NGXF">   240</i>
   <i type="int" name="NGYF">   240</i>
   <i type="int" name="NGZF">   300</i>
   <i type="logical" name="ADDGRID"> F  </i>
  </separator>
  <separator name="ionic" >
   <i type="int" name="NSW">   200</i>
   <i type="int" name="IBRION">     2</i>
   <i type="int" name="MDALGO">     0</i>
   <i type="int" name="ISIF">     2</i>
   <i name="PSTRESS">      0.00000000</i>
   <i name="EDIFFG">     -0.01000000</i>
   <i type="int" name="NFREE">    10</i>
   <i name="POTIM">      0.12500000</i>
   <i name="SMASS">     -3.00000000</i>
   <i name="SCALEE">      1.00000000</i>
  </separator>
  <separator name="ionic md" >
   <i name="TEBEG">      0.00010000</i>
   <i name="TEEND">      0.00010000</i>
   <i type="int" name="NBLOCK">     1</i>
   <i type="int" name="KBLOCK">   200</i>
   <i type="int" name="NPACO">   256</i>
   <i name="APACO">     16.00000000</i>
  </separator>
  <separator name="symmetry" >
   <i type="int" name="ISYM">     2</i>
   <i name="SYMPREC">      0.00001000</i>
  </separator>
  <separator name="dos" >
   <i type="int" name="LORBIT">     0</i>
   <v name="RWIGS">     -1.00000000     -1.00000000     -1.00000000</v>
   <i type="int" name="NEDOS">   301</i>
   <i name="EMIN">     10.00000000</i>
   <i name="EMAX">    -10.00000000</i>
   <i name="EFERMI">      0.00000000</i>
  </separator>
  <separator name="writing" >
   <i type="int" name="NWRITE">     1</i>
   <i type="logical" name="LWAVE"> F  </i>
   <i type="logical" name="LDOWNSAMPLE"> F  </i>
   <i type="logical" name="LCHARG"> F  </i>
   <i type="logical" name="LPARD"> F  </i>
   <i type="logical" name="LVTOT"> F  </i>
   <i type="logical" name="LVHAR"> F  </i>
   <i type="logical" name="LELF"> F  </i>
   <i type="logical" name="LOPTICS"> F  </i>
   <v name="STM">      0.00000000      0.00000000      0.00000000      0.00000000      0.00000000      0.00000000      0.00000000</v>
  </separator>
  <separator name="performance" >
   <i type="int" name="NPAR">     8</i>
   <i type="int" name="NSIM">     4</i>
   <i type="int" name="NBLK">    -1</i>
   <i type="logical" name="LPLANE"> T  </i>
   <i type="logical" name="LSCALAPACK"> T  </i>
   <i type="logical" name="LSCAAWARE"> F  </i>
   <i type="logical" name="LSCALU"> F  </i>
   <i type="logical" name="LASYNC"> F  </i>
   <i type="logical" name="LORBITALREAL"> F  </i>
  </separator>
  <separator name="miscellaneous" >
   <i type="int" name="IDIOT">     3</i>
   <i type="int" name="ISPECIAL">     0</i>
   <i type="logical" name="LMUSIC"> F  </i>
   <v name="POMASS">     95.94000000     32.06600000    195.08000000</v>
   <v name="DARWINR">      0.00000000      0.00000000      0.00000000</v>
   <v name="DARWINV">      1.00000000      1.00000000      1.00000000</v>
   <i type="logical" name="LCORR"> T  </i>
  </separator>
  <i type="logical" name="GGA_COMPAT"> T  </i>
  <i type="logical" name="LBERRY"> F  </i>
  <i type="int" name="ICORELEVEL">     0</i>
  <i type="logical" name="LDAU"> F  </i>
  <i type="int" name="I_CONSTRAINED_M">     0</i>
  <separator name="electronic exchange-correlation" >
   <i type="string" name="GGA">MK</i>
   <i type="int" name="VOSKOWN">     1</i>
   <i type="logical" name="LHFCALC"> F  </i>
   <i type="string" name="PRECFOCK"></i>
   <i type="logical" name="LSYMGRAD"> F  </i>
   <i type="logical" name="LHFONE"> F  </i>
   <i type="logical" name="LRHFCALC"> F  </i>
   <i type="logical" name="LTHOMAS"> F  </i>
   <i type="logical" name="LMODELHF"> F  </i>
   <i name="ENCUT4O">     -1.00000000</i>
   <i type="int" name="EXXOEP">     0</i>
   <i type="int" name="FOURORBIT">     0</i>
   <i name="AEXX">      0.00000000</i>
   <i name="HFALPHA">      0.00000000</i>
   <i name="MCALPHA">      0.00000000</i>
   <i name="ALDAX">      1.00000000</i>
   <i name="AGGAX">      1.00000000</i>
   <i name="ALDAC">      1.00000000</i>
   <i name="AGGAC">      0.00000000</i>
   <i type="int" name="NKREDX">     1</i>
   <i type="int" name="NKREDY">     1</i>
   <i type="int" name="NKREDZ">     1</i>
   <i type="logical" name="SHIFTRED"> F  </i>
   <i type="logical" name="ODDONLY"> F  </i>
   <i type="logical" name="EVENONLY"> F  </i>
   <i type="int" name="LMAXFOCK">     0</i>
   <i type="int" name="NMAXFOCKAE">     0</i>
   <i type="logical" name="LFOCKAEDFT"> F  </i>
   <i name="HFSCREEN">      0.00000000</i>
   <i name="HFSCREENC">      0.00000000</i>
   <i type="int" name="NBANDSGWLOW">     0</i>
  </separator>
  <separator name="vdW DFT" >
   <i type="logical" name="LUSE_VDW"> T  </i>
   <i name="Zab_VDW">     -0.84910000</i>
   <i name="PARAM1">      0.12340000</i>
   <i name="PARAM2">      1.00000000</i>
   <i name="PARAM3">      0.00000000</i>
  </separator>
  <separator name="model GW" >
   <i type="int" name="MODEL_GW">     0</i>
   <i name="MODEL_EPS0">     33.38399737</i>
   <i name="MODEL_ALPHA">      1.00000000</i>
  </separator>
  <separator name="linear response parameters" >
   <i type="logical" name="LEPSILON"> F  </i>
   <i type="logical" name="LRPA"> F  </i>
   <i type="logical" name="LNABLA"> F  </i>
   <i type="logical" name="LVEL"> F  </i>
   <i type="int" name="KINTER">     0</i>
   <i name="CSHIFT">      0.10000000</i>
   <i name="OMEGAMAX">     -1.00000000</i>
   <i name="DEG_THRESHOLD">      0.00200000</i>
   <i name="RTIME">     -0.10000000</i>
   <i name="WPLASMAI">      0.00000000</i>
   <v name="DFIELD">      0.00000000      0.00000000      0.00000000</v>
   <v name="WPLASMA">      0.00000000      0.00000000      0.00000000      0.00000000      0.00000000      0.00000000      0.00000000      0.00000000      0.00000000</v>
  </separator>
  <separator name="orbital magnetization" >
   <i type="logical" name="NUCIND"> F  </i>
   <v name="MAGPOS">      0.00000000      0.00000000      0.00000000</v>
   <i type="logical" name="LNICSALL"> T  </i>
   <i type="logical" name="ORBITALMAG"> F  </i>
   <i type="logical" name="LMAGBLOCH"> F  </i>
   <i type="logical" name="LCHIMAG"> F  </i>
   <i type="logical" name="LGAUGE"> T  </i>
   <i type="int" name="MAGATOM">     0</i>
   <v name="MAGDIPOL">      0.00000000      0.00000000      0.00000000</v>
   <v name="AVECCONST">      0.00000000      0.00000000      0.00000000</v>
  </separator>
  <separator name="response functions" >
   <i type="logical" name="LADDER"> F  </i>
   <i type="logical" name="LRPAFORCE"> F  </i>
   <i type="logical" name="LFXC"> F  </i>
   <i type="logical" name="LHARTREE"> T  </i>
   <i type="int" name="IBSE">     0</i>
   <v type="int" name="KPOINT">    -1     0     0     0</v>
   <i type="logical" name="LTCTE"> F  </i>
   <i type="logical" name="LTETE"> F  </i>
   <i type="logical" name="LTRIPLET"> F  </i>
   <i type="logical" name="LFXCEPS"> F  </i>
   <i type="logical" name="LFXHEG"> F  </i>
   <i type="int" name="NATURALO">     2</i>
   <i type="logical" name="L2ORDER"> F  </i>
   <i type="logical" name="LMP2LT"> F  </i>
   <i type="logical" name="LUSEW"> F  </i>
   <i name="ENCUTGW">     -2.00000000</i>
   <i name="ENCUTGWSOFT">     -2.00000000</i>
   <i name="ENCUTLF">     -1.00000000</i>
   <i type="int" name="LMAXMP2">    -1</i>
   <i name="SCISSOR">      0.00000000</i>
   <i type="int" name="NOMEGA">     0</i>
   <i type="int" name="NOMEGAR">     0</i>
   <i type="int" name="NBANDSGW">    -1</i>
   <i type="int" name="NBANDSO">    -1</i>
   <i type="int" name="NBANDSV">    -1</i>
   <i type="int" name="NELM">   100</i>
   <i type="int" name="NELMHF">     1</i>
   <i type="int" name="DIM">     3</i>
   <i type="int" name="ANTIRES">     0</i>
   <i name="OMEGAMAX">    -30.00000000</i>
   <i name="OMEGAMIN">    -30.00000000</i>
   <i name="OMEGATL">   -200.00000000</i>
   <i type="int" name="OMEGAGRID">   140</i>
   <i name="CSHIFT">     -0.10000000</i>
   <i type="logical" name="SELFENERGY"> F  </i>
   <i type="logical" name="LSPECTRAL"> F  </i>
   <i type="logical" name="LSPECTRALGW"> F  </i>
   <i type="logical" name="LSINGLES"> F  </i>
   <i type="logical" name="LFERMIGW"> F  </i>
   <i type="logical" name="ODDONLYGW"> F  </i>
   <i type="logical" name="EVENONLYGW"> F  </i>
   <i type="int" name="NKREDLFX">     1</i>
   <i type="int" name="NKREDLFY">     1</i>
   <i type="int" name="NKREDLFZ">     1</i>
   <i type="int" name="MAXMEM">  2800</i>
   <i type="int" name="TELESCOPE">     0</i>
   <i type="int" name="TAUPAR">     1</i>
   <i type="int" name="OMEGAPAR">    -1</i>
   <i name="LAMBDA">      1.00000000</i>
  </separator>
  <separator name="External order field" >
   <i name="OFIELD_KAPPA">      0.00000000</i>
   <v name="OFIELD_K">      0.00000000      0.00000000      0.00000000</v>
   <i name="OFIELD_Q6_NEAR">      0.00000000</i>
   <i name="OFIELD_Q6_FAR">      0.00000000</i>
   <i name="OFIELD_A">      0.00000000</i>
  </separator>
 </parameters>
 <atominfo>
  <atoms>      76 </atoms>
  <types>       3 </types>
  <array name="atoms" >
   <dimension dim="1">ion</dimension>
   <field type="string">element</field>
   <field type="int">atomtype</field>
   <set>
    <rc><c>Mo</c><c>   1</c></rc>
    <rc><c>Mo</c><c>   1</c></rc>
    <rc><c>Mo</c><c>   1</c></rc>
    <rc><c>Mo</c><c>   1</c></rc>
    <rc><c>Mo</c><c>   1</c></rc>
    <rc><c>Mo</c><c>   1</c></rc>
    <rc><c>Mo</c><c>   1</c></rc>
    <rc><c>Mo</c><c>   1</c></rc>
    <rc><c>Mo</c><c>   1</c></rc>
    <rc><c>Mo</c><c>   1</c></rc>
    <rc><c>Mo</c><c>   1</c></rc>
    <rc><c>Mo</c><c>   1</c></rc>
    <rc><c>Mo</c><c>   1</c></rc>
    <rc><c>Mo</c><c>   1</c></rc>
    <rc><c>Mo</c><c>   1</c></rc>
    <rc><c>Mo</c><c>   1</c></rc>
    <rc><c>Mo</c><c>   1</c></rc>
    <rc><c>Mo</c><c>   1</c></rc>
    <rc><c>Mo</c><c>   1</c></rc>
    <rc><c>Mo</c><c>   1</c></rc>
    <rc><c>Mo</c><c>   1</c></rc>
    <rc><c>Mo</c><c>   1</c></rc>
    <rc><c>Mo</c><c>   1</c></rc>
    <rc><c>Mo</c><c>   1</c></rc>
    <rc><c>Mo</c><c>   1</c></rc>
    <rc><c>S </c><c>   2</c></rc>
    <rc><c>S </c><c>   2</c></rc>
    <rc><c>S </c><c>   2</c></rc>
    <rc><c>S </c><c>   2</c></rc>
    <rc><c>S </c><c>   2</c></rc>
    <rc><c>S </c><c>   2</c></rc>
    <rc><c>S </c><c>   2</c></rc>
    <rc><c>S </c><c>   2</c></rc>
    <rc><c>S </c><c>   2</c></rc>
    <rc><c>S </c><c>   2</c></rc>
    <rc><c>S </c><c>   2</c></rc>
    <rc><c>S </c><c>   2</c></rc>
    <rc><c>S </c><c>   2</c></rc>
    <rc><c>S </c><c>   2</c></rc>
    <rc><c>S </c><c>   2</c></rc>
    <rc><c>S </c><c>   2</c></rc>
    <rc><c>S </c><c>   2</c></rc>
    <rc><c>S </c><c>   2</c></rc>
    <rc><c>S </c><c>   2</c></rc>
    <rc><c>S </c><c>   2</c></rc>
    <rc><c>S </c><c>   2</c></rc>
    <rc><c>S </c><c>   2</c></rc>
    <rc><c>S </c><c>   2</c></rc>
    <rc><c>S </c><c>   2</c></rc>
    <rc><c>S </c><c>   2</c></rc>
    <rc><c>S </c><c>   2</c></rc>
    <rc><c>S </c><c>   2</c></rc>
    <rc><c>S </c><c>   2</c></rc>
    <rc><c>S </c><c>   2</c></rc>
    <rc><c>S </c><c>   2</c></rc>
    <rc><c>S </c><c>   2</c></rc>
    <rc><c>S </c><c>   2</c></rc>
    <rc><c>S </c><c>   2</c></rc>
    <rc><c>S </c><c>   2</c></rc>
    <rc><c>S </c><c>   2</c></rc>
    <rc><c>S </c><c>   2</c></rc>
    <rc><c>S </c><c>   2</c></rc>
    <rc><c>S </c><c>   2</c></rc>
    <rc><c>S </c><c>   2</c></rc>
    <rc><c>S </c><c>   2</c></rc>
    <rc><c>S </c><c>   2</c></rc>
    <rc><c>S </c><c>   2</c></rc>
    <rc><c>S </c><c>   2</c></rc>
    <rc><c>S </c><c>   2</c></rc>
    <rc><c>S </c><c>   2</c></rc>
    <rc><c>S </c><c>   2</c></rc>
    <rc><c>S </c><c>   2</c></rc>
    <rc><c>S </c><c>   2</c></rc>
    <rc><c>S </c><c>   2</c></rc>
    <rc><c>S </c><c>   2</c></rc>
    <rc><c>Pt</c><c>   3</c></rc>
   </set>
  </array>
  <array name="atomtypes" >
   <dimension dim="1">type</dimension>
   <field type="int">atomspertype</field>
   <field type="string">element</field>
   <field>mass</field>
   <field>valence</field>
   <field type="string">pseudopotential</field>
   <set>
    <rc><c>  25</c><c>Mo</c><c>     95.94000000</c><c>     14.00000000</c><c>  PAW_PBE Mo_sv 02Feb2006               </c></rc>
    <rc><c>  50</c><c>S </c><c>     32.06600000</c><c>      6.00000000</c><c>  PAW_PBE S 06Sep2000                   </c></rc>
    <rc><c>   1</c><c>Pt</c><c>    195.08000000</c><c>     10.00000000</c><c>  PAW_PBE Pt 04Feb2005                  </c></rc>
   </set>
  </array>
 </atominfo>
 <structure name="initialpos" >
  <crystal>
   <varray name="basis" >
    <v>      15.62500000       0.00000000       0.00000000 </v>
    <v>      -7.81250000      13.53164693       0.00000000 </v>
    <v>       0.00000000       0.00000000      20.00000000 </v>
   </varray>
   <i name="volume">   4228.63966688 </i>
   <varray name="rec_basis" >
    <v>       0.06400000       0.03695042       0.00000000 </v>
    <v>       0.00000000       0.07390083       0.00000000 </v>
    <v>       0.00000000       0.00000000       0.05000000 </v>
   </varray>
  </crystal>
  <varray name="positions" >
   <v>       0.06664310       0.13341102       0.18598534 </v>
   <v>       0.26676792       0.13341102       0.18598534 </v>
   <v>       0.46665693       0.13332062       0.18598055 </v>
   <v>       0.66666666       0.13333332       0.18598822 </v>
   <v>       0.86666368       0.13332062       0.18598055 </v>
   <v>       0.06669789       0.33334893       0.18604429 </v>
   <v>       0.26633918       0.33267835       0.18611857 </v>
   <v>       0.46665105       0.33334893       0.18604429 </v>
   <v>       0.66667936       0.33334305       0.18598055 </v>
   <v>       0.86666368       0.33334305       0.18598055 </v>
   <v>       0.06664310       0.53323206       0.18598534 </v>
   <v>       0.26633918       0.53366080       0.18611857 </v>
   <v>       0.46732163       0.53366080       0.18611857 </v>
   <v>       0.66658896       0.53323206       0.18598534 </v>
   <v>       0.86667963       0.53335926       0.18597705 </v>
   <v>       0.06666390       0.73333608       0.18597842 </v>
   <v>       0.26676792       0.73335688       0.18598534 </v>
   <v>       0.46665105       0.73330209       0.18604429 </v>
   <v>       0.66658896       0.73335688       0.18598534 </v>
   <v>       0.86667218       0.73333608       0.18597842 </v>
   <v>       0.06666390       0.93332779       0.18597842 </v>
   <v>       0.26664072       0.93332035       0.18597705 </v>
   <v>       0.46665693       0.93333629       0.18598055 </v>
   <v>       0.66667936       0.93333629       0.18598055 </v>
   <v>       0.86667963       0.93332035       0.18597705 </v>
   <v>       0.13334339       0.06668676       0.10687518 </v>
   <v>       0.33333683       0.06667181       0.10690262 </v>
   <v>       0.53333459       0.06666729       0.10689076 </v>
   <v>       0.73333271       0.06666729       0.10689076 </v>
   <v>       0.93333499       0.06667181       0.10690262 </v>
   <v>       0.13326508       0.26664695       0.10685809 </v>
   <v>       0.33338189       0.26664695       0.10685809 </v>
   <v>       0.53332999       0.26667001       0.10688108 </v>
   <v>       0.73333271       0.26666540       0.10689076 </v>
   <v>       0.93334004       0.26667001       0.10688108 </v>
   <v>       0.13326508       0.46661811       0.10685809 </v>
   <v>       0.33333334       0.46666666       0.10699272 </v>
   <v>       0.53335304       0.46661811       0.10685809 </v>
   <v>       0.73332819       0.46666317       0.10690262 </v>
   <v>       0.93333499       0.46666317       0.10690262 </v>
   <v>       0.13334339       0.66665661       0.10687518 </v>
   <v>       0.33338189       0.66673492       0.10685809 </v>
   <v>       0.53335304       0.66673492       0.10685809 </v>
   <v>       0.73331324       0.66665661       0.10687518 </v>
   <v>       0.93333171       0.66666341       0.10689413 </v>
   <v>       0.13333659       0.86666828       0.10689413 </v>
   <v>       0.33333683       0.86666500       0.10690262 </v>
   <v>       0.53332999       0.86665996       0.10688108 </v>
   <v>       0.73332819       0.86666500       0.10690262 </v>
   <v>       0.93333171       0.86666828       0.10689413 </v>
   <v>       0.13333943       0.06667884       0.26511591 </v>
   <v>       0.33334497       0.06666217       0.26508323 </v>
   <v>       0.53333700       0.06666849       0.26509006 </v>
   <v>       0.73333151       0.06666849       0.26509006 </v>
   <v>       0.93331721       0.06666217       0.26508323 </v>
   <v>       0.13343635       0.26671701       0.26511314 </v>
   <v>       0.33328067       0.26671701       0.26511314 </v>
   <v>       0.53332500       0.26667500       0.26511025 </v>
   <v>       0.73333151       0.26666300       0.26509006 </v>
   <v>       0.93335002       0.26667500       0.26511025 </v>
   <v>       0.13343635       0.46671932       0.26511314 </v>
   <v>       0.33333334       0.46666666       0.26959512 </v>
   <v>       0.53328299       0.46671932       0.26511314 </v>
   <v>       0.73333783       0.46665502       0.26508323 </v>
   <v>       0.93331721       0.46665502       0.26508323 </v>
   <v>       0.13333943       0.66666057       0.26511591 </v>
   <v>       0.33328067       0.66656364       0.26511314 </v>
   <v>       0.53328299       0.66656364       0.26511314 </v>
   <v>       0.73332115       0.66666057       0.26511591 </v>
   <v>       0.93333051       0.66666101       0.26508684 </v>
   <v>       0.13333898       0.86666948       0.26508684 </v>
   <v>       0.33334497       0.86668279       0.26508323 </v>
   <v>       0.53332500       0.86664998       0.26511025 </v>
   <v>       0.73333783       0.86668279       0.26508323 </v>
   <v>       0.93333051       0.86666948       0.26508684 </v>
   <v>       0.33333334       0.46666666       0.37483234 </v>
  </varray>
 </structure>
 <calculation>
  <scstep>
   <time name="dav">   69.16   70.06</time>
   <time name="total">   76.43   77.80</time>
   <dipole>
    <v name="dipole">      0.00000000       0.00000000      -0.00003363 </v>
    <i name="Tr[quadrupol]"> -27501.27322113 </i>
    <i name="Echarged">      0.00000000 </i>
    <i name="Edipol_quadrupol">      0.00000000 </i>
    <i name="Eion">      0.00000000 </i>
   </dipole>
   <energy>
    <i name="alphaZ">    724.79321119 </i>
    <i name="ewald"> 144543.02691811 </i>
    <i name="hartreedc">-198030.46400378 </i>
    <i name="XCdc">   2298.03030118 </i>
    <i name="pawpsdc">  49050.56298338 </i>
    <i name="pawaedc"> -48366.95294024 </i>
    <i name="eentropy">     -0.05446170 </i>
    <i name="bandstr">  -5967.74624573 </i>
    <i name="atom">  61277.49441763 </i>
    <i name="e_fr_energy">   5528.69018004 </i>
    <i name="e_wo_entrp">   5528.74464175 </i>
    <i name="e_0_energy">   5528.71741089 </i>
   </energy>
  </scstep>
  <scstep>
   <time name="dav">   73.21   73.30</time>
   <time name="total">   73.21   73.30</time>
   <dipole>
    <v name="dipole">      0.00000000       0.00000000      -0.00003363 </v>
    <i name="Tr[quadrupol]"> -27501.27322113 </i>
    <i name="Echarged">      0.00000000 </i>
    <i name="Edipol_quadrupol">      0.00000000 </i>
    <i name="Eion">      0.00000000 </i>
   </dipole>
   <energy>
    <i name="e_fr_energy">    144.83542682 </i>
    <i name="e_wo_entrp">    144.83542682 </i>
    <i name="e_0_energy">    144.83542682 </i>
   </energy>
  </scstep>
  <scstep>
   <time name="dav">   66.42   66.56</time>
   <time name="total">   66.42   66.56</time>
   <dipole>
    <v name="dipole">      0.00000000       0.00000000      -0.00003363 </v>
    <i name="Tr[quadrupol]"> -27501.27322113 </i>
    <i name="Echarged">      0.00000000 </i>
    <i name="Edipol_quadrupol">      0.00000000 </i>
    <i name="Eion">      0.00000000 </i>
   </dipole>
   <energy>
    <i name="e_fr_energy">   -403.20845803 </i>
    <i name="e_wo_entrp">   -403.20845803 </i>
    <i name="e_0_energy">   -403.20845803 </i>
   </energy>
  </scstep>
  <scstep>
   <time name="dav">   69.03   69.16</time>
   <time name="total">   69.03   69.16</time>
   <dipole>
    <v name="dipole">      0.00000000       0.00000000      -0.00003363 </v>
    <i name="Tr[quadrupol]"> -27501.27322113 </i>
    <i name="Echarged">      0.00000000 </i>
    <i name="Edipol_quadrupol">      0.00000000 </i>
    <i name="Eion">      0.00000000 </i>
   </dipole>
   <energy>
    <i name="e_fr_energy">   -420.78501757 </i>
    <i name="e_wo_entrp">   -420.78501757 </i>
    <i name="e_0_energy">   -420.78501757 </i>
   </energy>
  </scstep>
  <scstep>
   <time name="dav">   71.03   71.17</time>
   <time name="total">   71.03   71.17</time>
   <dipole>
    <v name="dipole">      0.00000000       0.00000000      -0.00003363 </v>
    <i name="Tr[quadrupol]"> -27501.27322113 </i>
    <i name="Echarged">      0.00000000 </i>
    <i name="Edipol_quadrupol">      0.00000000 </i>
    <i name="Eion">      0.00000000 </i>
   </dipole>
   <energy>
    <i name="e_fr_energy">   -421.31342674 </i>
    <i name="e_wo_entrp">   -421.31342674 </i>
    <i name="e_0_energy">   -421.31342674 </i>
   </energy>
  </scstep>
  <scstep>
   <time name="dav">   68.43   68.57</time>
   <time name="total">   68.43   68.57</time>
   <dipole>
    <v name="dipole">      0.00000000       0.00000000      -0.00003363 </v>
    <i name="Tr[quadrupol]"> -27501.27322113 </i>
    <i name="Echarged">      0.00000000 </i>
    <i name="Edipol_quadrupol">      0.00000000 </i>
    <i name="Eion">      0.00000000 </i>
   </dipole>
   <energy>
    <i name="e_fr_energy">   -421.33751468 </i>
    <i name="e_wo_entrp">   -421.33751468 </i>
    <i name="e_0_energy">   -421.33751468 </i>
   </energy>
  </scstep>
  <scstep>
   <time name="dav">   67.60   67.72</time>
   <time name="total">   67.60   67.72</time>
   <dipole>
    <v name="dipole">      0.00000000       0.00000000      -0.00003363 </v>
    <i name="Tr[quadrupol]"> -27501.27322113 </i>
    <i name="Echarged">      0.00000000 </i>
    <i name="Edipol_quadrupol">      0.00000000 </i>
    <i name="Eion">      0.00000000 </i>
   </dipole>
   <energy>
    <i name="e_fr_energy">   -421.33878336 </i>
    <i name="e_wo_entrp">   -421.33878336 </i>
    <i name="e_0_energy">   -421.33878336 </i>
   </energy>
  </scstep>
  <scstep>
   <time name="dav">   68.33   68.59</time>
   <time name="total">   68.33   68.59</time>
   <dipole>
    <v name="dipole">      0.00000000       0.00000000      -0.00003363 </v>
    <i name="Tr[quadrupol]"> -27501.27322113 </i>
    <i name="Echarged">      0.00000000 </i>
    <i name="Edipol_quadrupol">      0.00000000 </i>
    <i name="Eion">      0.00000000 </i>
   </dipole>
   <energy>
    <i name="e_fr_energy">   -421.33884972 </i>
    <i name="e_wo_entrp">   -421.33884972 </i>
    <i name="e_0_energy">   -421.33884972 </i>
   </energy>
  </scstep>
  <scstep>
   <time name="dav">   64.32   64.58</time>
   <time name="total">   64.32   64.58</time>
   <dipole>
    <v name="dipole">      0.00000000       0.00000000      -0.00003363 </v>
    <i name="Tr[quadrupol]"> -27501.27322113 </i>
    <i name="Echarged">      0.00000000 </i>
    <i name="Edipol_quadrupol">      0.00000000 </i>
    <i name="Eion">      0.00000000 </i>
   </dipole>
   <energy>
    <i name="e_fr_energy">   -421.33885350 </i>
    <i name="e_wo_entrp">   -421.33885350 </i>
    <i name="e_0_energy">   -421.33885350 </i>
   </energy>
  </scstep>
  <scstep>
   <time name="dav">   58.18   58.35</time>
   <time name="total">   61.41   61.65</time>
   <dipole>
    <v name="dipole">      0.00000000       0.00000000      -0.00003363 </v>
    <i name="Tr[quadrupol]"> -27501.27322113 </i>
    <i name="Echarged">      0.00000000 </i>
    <i name="Edipol_quadrupol">      0.00000000 </i>
    <i name="Eion">      0.00000000 </i>
   </dipole>
   <energy>
    <i name="e_fr_energy">   -421.33885372 </i>
    <i name="e_wo_entrp">   -421.33885372 </i>
    <i name="e_0_energy">   -421.33885372 </i>
   </energy>
  </scstep>
  <scstep>
   <time name="dav">   61.57   61.66</time>
   <time name="total">   71.80   71.94</time>
   <dipole>
    <v name="dipole">      0.00000000       0.00000000      -0.00186854 </v>
    <i name="Tr[quadrupol]"> -27500.27712884 </i>
    <i name="Echarged">      0.00000000 </i>
    <i name="Edipol_quadrupol">      0.00000000 </i>
    <i name="Eion">      0.00000000 </i>
   </dipole>
   <energy>
    <i name="e_fr_energy">   -389.46595925 </i>
    <i name="e_wo_entrp">   -389.46595699 </i>
    <i name="e_0_energy">   -389.46595812 </i>
   </energy>
  </scstep>
  <scstep>
   <time name="dav">   61.36   61.48</time>
   <time name="total">   71.62   71.77</time>
   <dipole>
    <v name="dipole">      0.00000000       0.00000000      -0.51167840 </v>
    <i name="Tr[quadrupol]"> -27508.76393608 </i>
    <i name="Echarged">      0.00000000 </i>
    <i name="Edipol_quadrupol">      0.00000000 </i>
    <i name="Eion">      0.00000000 </i>
   </dipole>
   <energy>
    <i name="e_fr_energy">   -392.19876101 </i>
    <i name="e_wo_entrp">   -392.19876101 </i>
    <i name="e_0_energy">   -392.19876101 </i>
   </energy>
  </scstep>
  <scstep>
   <time name="dav">   60.73   60.83</time>
   <time name="total">   71.02   71.19</time>
   <dipole>
    <v name="dipole">      0.00000000       0.00000000      -0.31746230 </v>
    <i name="Tr[quadrupol]"> -27508.51781748 </i>
    <i name="Echarged">      0.00000000 </i>
    <i name="Edipol_quadrupol">      0.00000000 </i>
    <i name="Eion">      0.00000000 </i>
   </dipole>
   <energy>
    <i name="e_fr_energy">   -390.89271734 </i>
    <i name="e_wo_entrp">   -390.89271734 </i>
    <i name="e_0_energy">   -390.89271734 </i>
   </energy>
  </scstep>
  <scstep>
   <time name="dav">   63.64   63.79</time>
   <time name="total">   73.88   74.07</time>
   <dipole>
    <v name="dipole">      0.00000000       0.00000000      -0.45504207 </v>
    <i name="Tr[quadrupol]"> -27510.18542525 </i>
    <i name="Echarged">      0.00000000 </i>
    <i name="Edipol_quadrupol">      0.00000000 </i>
    <i name="Eion">      0.00000000 </i>
   </dipole>
   <energy>
    <i name="e_fr_energy">   -394.55657795 </i>
    <i name="e_wo_entrp">   -394.55657795 </i>
    <i name="e_0_energy">   -394.55657795 </i>
   </energy>
  </scstep>
  <scstep>
   <time name="dav">   60.19   60.38</time>
   <time name="total">   70.47   70.70</time>
   <dipole>
    <v name="dipole">      0.00000000       0.00000000      -0.39326156 </v>
    <i name="Tr[quadrupol]"> -27511.21796968 </i>
    <i name="Echarged">      0.00000000 </i>
    <i name="Edipol_quadrupol">      0.00000000 </i>
    <i name="Eion">      0.00000000 </i>
   </dipole>
   <energy>
    <i name="e_fr_energy">   -396.68869452 </i>
    <i name="e_wo_entrp">   -396.68869452 </i>
    <i name="e_0_energy">   -396.68869452 </i>
   </energy>
  </scstep>
  <scstep>
   <time name="dav">   60.25   60.48</time>
   <time name="total">   70.49   70.80</time>
   <dipole>
    <v name="dipole">      0.00000000       0.00000000      -0.36838595 </v>
    <i name="Tr[quadrupol]"> -27512.41647095 </i>
    <i name="Echarged">      0.00000000 </i>
    <i name="Edipol_quadrupol">      0.00000000 </i>
    <i name="Eion">      0.00000000 </i>
   </dipole>
   <energy>
    <i name="e_fr_energy">   -398.97027119 </i>
    <i name="e_wo_entrp">   -398.97027119 </i>
    <i name="e_0_energy">   -398.97027119 </i>
   </energy>
  </scstep>
  <scstep>
   <time name="dav">   62.74   62.92</time>
   <time name="total">   72.98   73.20</time>
   <dipole>
    <v name="dipole">      0.00000000       0.00000000      -0.31948475 </v>
    <i name="Tr[quadrupol]"> -27513.82434885 </i>
    <i name="Echarged">      0.00000000 </i>
    <i name="Edipol_quadrupol">      0.00000000 </i>
    <i name="Eion">      0.00000000 </i>
   </dipole>
   <energy>
    <i name="e_fr_energy">   -400.81752783 </i>
    <i name="e_wo_entrp">   -400.81752783 </i>
    <i name="e_0_energy">   -400.81752783 </i>
   </energy>
  </scstep>
  <scstep>
   <time name="dav">   63.29   63.42</time>
   <time name="total">   73.53   73.71</time>
   <dipole>
    <v name="dipole">      0.00000000       0.00000000      -0.28670673 </v>
    <i name="Tr[quadrupol]"> -27514.35200083 </i>
    <i name="Echarged">      0.00000000 </i>
    <i name="Edipol_quadrupol">      0.00000000 </i>
    <i name="Eion">      0.00000000 </i>
   </dipole>
   <energy>
    <i name="e_fr_energy">   -401.04249884 </i>
    <i name="e_wo_entrp">   -401.04249884 </i>
    <i name="e_0_energy">   -401.04249884 </i>
   </energy>
  </scstep>
  <scstep>
   <time name="dav">   59.95   60.19</time>
   <time name="total">   70.21   70.49</time>
   <dipole>
    <v name="dipole">      0.00000000       0.00000000      -0.24986898 </v>
    <i name="Tr[quadrupol]"> -27514.66550830 </i>
    <i name="Echarged">      0.00000000 </i>
    <i name="Edipol_quadrupol">      0.00000000 </i>
    <i name="Eion">      0.00000000 </i>
   </dipole>
   <energy>
    <i name="e_fr_energy">   -401.10895989 </i>
    <i name="e_wo_entrp">   -401.10895989 </i>
    <i name="e_0_energy">   -401.10895989 </i>
   </energy>
  </scstep>
  <scstep>
   <time name="dav">   62.35   62.77</time>
   <time name="total">   72.96   73.41</time>
   <dipole>
    <v name="dipole">      0.00000000       0.00000000      -0.22731392 </v>
    <i name="Tr[quadrupol]"> -27514.83619596 </i>
    <i name="Echarged">      0.00000000 </i>
    <i name="Edipol_quadrupol">      0.00000000 </i>
    <i name="Eion">      0.00000000 </i>
   </dipole>
   <energy>
    <i name="e_fr_energy">   -401.11081990 </i>
    <i name="e_wo_entrp">   -401.11081990 </i>
    <i name="e_0_energy">   -401.11081990 </i>
   </energy>
  </scstep>
  <scstep>
   <time name="dav">   61.38   62.38</time>
   <time name="total">   72.13   73.25</time>
   <dipole>
    <v name="dipole">      0.00000000       0.00000000      -0.21996370 </v>
    <i name="Tr[quadrupol]"> -27514.90161404 </i>
    <i name="Echarged">      0.00000000 </i>
    <i name="Edipol_quadrupol">      0.00000000 </i>
    <i name="Eion">      0.00000000 </i>
   </dipole>
   <energy>
    <i name="e_fr_energy">   -401.10870789 </i>
    <i name="e_wo_entrp">   -401.10870789 </i>
    <i name="e_0_energy">   -401.10870789 </i>
   </energy>
  </scstep>
  <scstep>
   <time name="dav">   62.46   62.61</time>
   <time name="total">   73.13   73.43</time>
   <dipole>
    <v name="dipole">      0.00000000       0.00000000      -0.21295235 </v>
    <i name="Tr[quadrupol]"> -27514.94141402 </i>
    <i name="Echarged">      0.00000000 </i>
    <i name="Edipol_quadrupol">      0.00000000 </i>
    <i name="Eion">      0.00000000 </i>
   </dipole>
   <energy>
    <i name="e_fr_energy">   -401.10755474 </i>
    <i name="e_wo_entrp">   -401.10755474 </i>
    <i name="e_0_energy">   -401.10755474 </i>
   </energy>
  </scstep>
  <scstep>
   <time name="dav">   60.92   61.08</time>
   <time name="total">   71.65   71.85</time>
   <dipole>
    <v name="dipole">      0.00000000       0.00000000      -0.20602828 </v>
    <i name="Tr[quadrupol]"> -27514.99925555 </i>
    <i name="Echarged">      0.00000000 </i>
    <i name="Edipol_quadrupol">      0.00000000 </i>
    <i name="Eion">      0.00000000 </i>
   </dipole>
   <energy>
    <i name="e_fr_energy">   -401.10764662 </i>
    <i name="e_wo_entrp">   -401.10764662 </i>
    <i name="e_0_energy">   -401.10764662 </i>
   </energy>
  </scstep>
  <scstep>
   <time name="dav">   66.00   66.15</time>
   <time name="total">   76.84   77.05</time>
   <dipole>
    <v name="dipole">      0.00000000       0.00000000      -0.20252191 </v>
    <i name="Tr[quadrupol]"> -27515.27190307 </i>
    <i name="Echarged">      0.00000000 </i>
    <i name="Edipol_quadrupol">      0.00000000 </i>
    <i name="Eion">      0.00000000 </i>
   </dipole>
   <energy>
    <i name="e_fr_energy">   -401.10829219 </i>
    <i name="e_wo_entrp">   -401.10829219 </i>
    <i name="e_0_energy">   -401.10829219 </i>
   </energy>
  </scstep>
  <scstep>
   <time name="dav">   64.27   64.40</time>
   <time name="total">   75.19   75.37</time>
   <dipole>
    <v name="dipole">      0.00000000       0.00000000      -0.20497866 </v>
    <i name="Tr[quadrupol]"> -27515.40748000 </i>
    <i name="Echarged">      0.00000000 </i>
    <i name="Edipol_quadrupol">      0.00000000 </i>
    <i name="Eion">      0.00000000 </i>
   </dipole>
   <energy>
    <i name="e_fr_energy">   -401.10884913 </i>
    <i name="e_wo_entrp">   -401.10884913 </i>
    <i name="e_0_energy">   -401.10884913 </i>
   </energy>
  </scstep>
  <scstep>
   <time name="dav">   65.70   65.84</time>
   <time name="total">   76.63   76.82</time>
   <dipole>
    <v name="dipole">      0.00000000       0.00000000      -0.20563681 </v>
    <i name="Tr[quadrupol]"> -27515.47818960 </i>
    <i name="Echarged">      0.00000000 </i>
    <i name="Edipol_quadrupol">      0.00000000 </i>
    <i name="Eion">      0.00000000 </i>
   </dipole>
   <energy>
    <i name="e_fr_energy">   -401.10902857 </i>
    <i name="e_wo_entrp">   -401.10902857 </i>
    <i name="e_0_energy">   -401.10902857 </i>
   </energy>
  </scstep>
  <scstep>
   <time name="dav">   64.63   64.77</time>
   <time name="total">   75.69   75.86</time>
   <dipole>
    <v name="dipole">      0.00000000       0.00000000      -0.20474938 </v>
    <i name="Tr[quadrupol]"> -27515.49890775 </i>
    <i name="Echarged">      0.00000000 </i>
    <i name="Edipol_quadrupol">      0.00000000 </i>
    <i name="Eion">      0.00000000 </i>
   </dipole>
   <energy>
    <i name="e_fr_energy">   -401.10907638 </i>
    <i name="e_wo_entrp">   -401.10907638 </i>
    <i name="e_0_energy">   -401.10907638 </i>
   </energy>
  </scstep>
  <scstep>
   <time name="dav">   66.17   66.33</time>
   <time name="total">   77.08   77.29</time>
   <dipole>
    <v name="dipole">      0.00000000       0.00000000      -0.19146617 </v>
    <i name="Tr[quadrupol]"> -27515.14822319 </i>
    <i name="Echarged">      0.00000000 </i>
    <i name="Edipol_quadrupol">      0.00000000 </i>
    <i name="Eion">      0.00000000 </i>
   </dipole>
   <energy>
    <i name="e_fr_energy">   -401.10906776 </i>
    <i name="e_wo_entrp">   -401.10906776 </i>
    <i name="e_0_energy">   -401.10906776 </i>
   </energy>
  </scstep>
  <scstep>
   <time name="dav">   63.99   64.14</time>
   <time name="total">   74.89   75.08</time>
   <dipole>
    <v name="dipole">      0.00000000       0.00000000      -0.18392277 </v>
    <i name="Tr[quadrupol]"> -27514.97546447 </i>
    <i name="Echarged">      0.00000000 </i>
    <i name="Edipol_quadrupol">      0.00000000 </i>
    <i name="Eion">      0.00000000 </i>
   </dipole>
   <energy>
    <i name="e_fr_energy">   -401.10908776 </i>
    <i name="e_wo_entrp">   -401.10908776 </i>
    <i name="e_0_energy">   -401.10908776 </i>
   </energy>
  </scstep>
  <scstep>
   <time name="dav">   63.81   63.96</time>
   <time name="total">   74.66   74.86</time>
   <dipole>
    <v name="dipole">      0.00000000       0.00000000      -0.17926963 </v>
    <i name="Tr[quadrupol]"> -27514.88559516 </i>
    <i name="Echarged">      0.00000000 </i>
    <i name="Edipol_quadrupol">      0.00000000 </i>
    <i name="Eion">      0.00000000 </i>
   </dipole>
   <energy>
    <i name="e_fr_energy">   -401.10911057 </i>
    <i name="e_wo_entrp">   -401.10911057 </i>
    <i name="e_0_energy">   -401.10911057 </i>
   </energy>
  </scstep>
  <scstep>
   <time name="dav">   66.92   67.08</time>
   <time name="total">   77.74   78.05</time>
   <dipole>
    <v name="dipole">      0.00000000       0.00000000      -0.17766343 </v>
    <i name="Tr[quadrupol]"> -27514.87329653 </i>
    <i name="Echarged">      0.00000000 </i>
    <i name="Edipol_quadrupol">      0.00000000 </i>
    <i name="Eion">      0.00000000 </i>
   </dipole>
   <energy>
    <i name="e_fr_energy">   -401.10914127 </i>
    <i name="e_wo_entrp">   -401.10914127 </i>
    <i name="e_0_energy">   -401.10914127 </i>
   </energy>
  </scstep>
  <scstep>
   <time name="dav">   71.58   71.75</time>
   <time name="total">   82.57   82.77</time>
   <dipole>
    <v name="dipole">      0.00000000       0.00000000      -0.17574378 </v>
    <i name="Tr[quadrupol]"> -27514.92641578 </i>
    <i name="Echarged">      0.00000000 </i>
    <i name="Edipol_quadrupol">      0.00000000 </i>
    <i name="Eion">      0.00000000 </i>
   </dipole>
   <energy>
    <i name="e_fr_energy">   -401.10926256 </i>
    <i name="e_wo_entrp">   -401.10926256 </i>
    <i name="e_0_energy">   -401.10926256 </i>
   </energy>
  </scstep>
  <scstep>
   <time name="dav">   64.85   64.98</time>
   <time name="total">   75.63   75.81</time>
   <dipole>
    <v name="dipole">      0.00000000       0.00000000      -0.17509722 </v>
    <i name="Tr[quadrupol]"> -27514.93055275 </i>
    <i name="Echarged">      0.00000000 </i>
    <i name="Edipol_quadrupol">      0.00000000 </i>
    <i name="Eion">      0.00000000 </i>
   </dipole>
   <energy>
    <i name="e_fr_energy">   -401.10928826 </i>
    <i name="e_wo_entrp">   -401.10928826 </i>
    <i name="e_0_energy">   -401.10928826 </i>
   </energy>
  </scstep>
  <scstep>
   <time name="dav">   58.86   59.07</time>
   <time name="total">   69.67   69.98</time>
   <dipole>
    <v name="dipole">      0.00000000       0.00000000      -0.17632249 </v>
    <i name="Tr[quadrupol]"> -27514.94546701 </i>
    <i name="Echarged">      0.00000000 </i>
    <i name="Edipol_quadrupol">      0.00000000 </i>
    <i name="Eion">      0.00000000 </i>
   </dipole>
   <energy>
    <i name="e_fr_energy">   -401.10924352 </i>
    <i name="e_wo_entrp">   -401.10924352 </i>
    <i name="e_0_energy">   -401.10924352 </i>
   </energy>
  </scstep>
  <scstep>
   <time name="dav">   64.00   64.14</time>
   <time name="total">   74.84   75.02</time>
   <dipole>
    <v name="dipole">      0.00000000       0.00000000      -0.17746191 </v>
    <i name="Tr[quadrupol]"> -27514.95246054 </i>
    <i name="Echarged">      0.00000000 </i>
    <i name="Edipol_quadrupol">      0.00000000 </i>
    <i name="Eion">      0.00000000 </i>
   </dipole>
   <energy>
    <i name="e_fr_energy">   -401.10922010 </i>
    <i name="e_wo_entrp">   -401.10922010 </i>
    <i name="e_0_energy">   -401.10922010 </i>
   </energy>
  </scstep>
  <scstep>
   <time name="dav">   65.23   65.38</time>
   <time name="total">   76.10   76.29</time>
   <dipole>
    <v name="dipole">      0.00000000       0.00000000      -0.18198369 </v>
    <i name="Tr[quadrupol]"> -27515.07722396 </i>
    <i name="Echarged">      0.00000000 </i>
    <i name="Edipol_quadrupol">      0.00000000 </i>
    <i name="Eion">      0.00000000 </i>
   </dipole>
   <energy>
    <i name="e_fr_energy">   -401.10925235 </i>
    <i name="e_wo_entrp">   -401.10925235 </i>
    <i name="e_0_energy">   -401.10925235 </i>
   </energy>
  </scstep>
  <scstep>
   <time name="dav">   61.54   61.68</time>
   <time name="total">   72.39   72.57</time>
   <dipole>
    <v name="dipole">      0.00000000       0.00000000      -0.18259923 </v>
    <i name="Tr[quadrupol]"> -27515.17634807 </i>
    <i name="Echarged">      0.00000000 </i>
    <i name="Edipol_quadrupol">      0.00000000 </i>
    <i name="Eion">      0.00000000 </i>
   </dipole>
   <energy>
    <i name="e_fr_energy">   -401.10931275 </i>
    <i name="e_wo_entrp">   -401.10931275 </i>
    <i name="e_0_energy">   -401.10931275 </i>
   </energy>
  </scstep>
  <scstep>
   <time name="dav">   61.13   61.37</time>
   <time name="total">   71.99   72.28</time>
   <dipole>
    <v name="dipole">      0.00000000       0.00000000      -0.18208084 </v>
    <i name="Tr[quadrupol]"> -27515.20664546 </i>
    <i name="Echarged">      0.00000000 </i>
    <i name="Edipol_quadrupol">      0.00000000 </i>
    <i name="Eion">      0.00000000 </i>
   </dipole>
   <energy>
    <i name="e_fr_energy">   -401.10935208 </i>
    <i name="e_wo_entrp">   -401.10935208 </i>
    <i name="e_0_energy">   -401.10935208 </i>
   </energy>
  </scstep>
  <scstep>
   <time name="dav">   62.62   62.72</time>
   <time name="total">   73.39   73.53</time>
   <dipole>
    <v name="dipole">      0.00000000       0.00000000      -0.18202376 </v>
    <i name="Tr[quadrupol]"> -27515.23288539 </i>
    <i name="Echarged">      0.00000000 </i>
    <i name="Edipol_quadrupol">      0.00000000 </i>
    <i name="Eion">      0.00000000 </i>
   </dipole>
   <energy>
    <i name="e_fr_energy">   -401.10936578 </i>
    <i name="e_wo_entrp">   -401.10936578 </i>
    <i name="e_0_energy">   -401.10936578 </i>
   </energy>
  </scstep>
  <scstep>
   <time name="dav">   63.38   63.60</time>
   <time name="total">   74.26   74.57</time>
   <dipole>
    <v name="dipole">      0.00000000       0.00000000      -0.18147935 </v>
    <i name="Tr[quadrupol]"> -27515.26531089 </i>
    <i name="Echarged">      0.00000000 </i>
    <i name="Edipol_quadrupol">      0.00000000 </i>
    <i name="Eion">      0.00000000 </i>
   </dipole>
   <energy>
    <i name="e_fr_energy">   -401.10941142 </i>
    <i name="e_wo_entrp">   -401.10941142 </i>
    <i name="e_0_energy">   -401.10941142 </i>
   </energy>
  </scstep>
  <scstep>
   <time name="dav">   64.01   64.11</time>
   <time name="total">   75.08   75.35</time>
   <dipole>
    <v name="dipole">      0.00000000       0.00000000      -0.18037896 </v>
    <i name="Tr[quadrupol]"> -27515.31196368 </i>
    <i name="Echarged">      0.00000000 </i>
    <i name="Edipol_quadrupol">      0.00000000 </i>
    <i name="Eion">      0.00000000 </i>
   </dipole>
   <energy>
    <i name="e_fr_energy">   -401.10949858 </i>
    <i name="e_wo_entrp">   -401.10949858 </i>
    <i name="e_0_energy">   -401.10949858 </i>
   </energy>
  </scstep>
  <scstep>
   <time name="dav">   64.19   64.37</time>
   <time name="total">   75.02   75.24</time>
   <dipole>
    <v name="dipole">      0.00000000       0.00000000      -0.17995285 </v>
    <i name="Tr[quadrupol]"> -27515.31849024 </i>
    <i name="Echarged">      0.00000000 </i>
    <i name="Edipol_quadrupol">      0.00000000 </i>
    <i name="Eion">      0.00000000 </i>
   </dipole>
   <energy>
    <i name="e_fr_energy">   -401.10952597 </i>
    <i name="e_wo_entrp">   -401.10952597 </i>
    <i name="e_0_energy">   -401.10952597 </i>
   </energy>
  </scstep>
  <scstep>
   <time name="dav">   63.34   63.50</time>
   <time name="total">   74.14   74.34</time>
   <dipole>
    <v name="dipole">      0.00000000       0.00000000      -0.17972566 </v>
    <i name="Tr[quadrupol]"> -27515.29623548 </i>
    <i name="Echarged">      0.00000000 </i>
    <i name="Edipol_quadrupol">      0.00000000 </i>
    <i name="Eion">      0.00000000 </i>
   </dipole>
   <energy>
    <i name="e_fr_energy">   -401.10953643 </i>
    <i name="e_wo_entrp">   -401.10953643 </i>
    <i name="e_0_energy">   -401.10953643 </i>
   </energy>
  </scstep>
  <scstep>
   <time name="dav">   52.42   52.55</time>
   <time name="total">   63.25   63.44</time>
   <dipole>
    <v name="dipole">      0.00000000       0.00000000      -0.17963860 </v>
    <i name="Tr[quadrupol]"> -27515.27325407 </i>
    <i name="Echarged">      0.00000000 </i>
    <i name="Edipol_quadrupol">      0.00000000 </i>
    <i name="Eion">      0.00000000 </i>
   </dipole>
   <energy>
    <i name="e_fr_energy">   -401.10954023 </i>
    <i name="e_wo_entrp">   -401.10954023 </i>
    <i name="e_0_energy">   -401.10954023 </i>
   </energy>
  </scstep>
  <scstep>
   <time name="dav">   55.39   55.52</time>
   <time name="total">   66.28   66.46</time>
   <dipole>
    <v name="dipole">      0.00000000       0.00000000      -0.18005167 </v>
    <i name="Tr[quadrupol]"> -27515.30000038 </i>
    <i name="Echarged">      0.00000000 </i>
    <i name="Edipol_quadrupol">      0.00000000 </i>
    <i name="Eion">      0.00000000 </i>
   </dipole>
   <energy>
    <i name="e_fr_energy">   -401.10953030 </i>
    <i name="e_wo_entrp">   -401.10953030 </i>
    <i name="e_0_energy">   -401.10953030 </i>
   </energy>
  </scstep>
  <scstep>
   <time name="dav">   56.74   56.88</time>
   <time name="total">   67.55   67.72</time>
   <dipole>
    <v name="dipole">      0.00000000       0.00000000      -0.18052052 </v>
    <i name="Tr[quadrupol]"> -27515.56662367 </i>
    <i name="Echarged">      0.00000000 </i>
    <i name="Edipol_quadrupol">      0.00000000 </i>
    <i name="Eion">      0.00000000 </i>
   </dipole>
   <energy>
    <i name="e_fr_energy">   -401.10952882 </i>
    <i name="e_wo_entrp">   -401.10952882 </i>
    <i name="e_0_energy">   -401.10952882 </i>
   </energy>
  </scstep>
  <scstep>
   <time name="dav">   49.06   49.18</time>
   <time name="total">   59.96   60.13</time>
   <dipole>
    <v name="dipole">      0.00000000       0.00000000      -0.18078821 </v>
    <i name="Tr[quadrupol]"> -27515.71109174 </i>
    <i name="Echarged">      0.00000000 </i>
    <i name="Edipol_quadrupol">      0.00000000 </i>
    <i name="Eion">      0.00000000 </i>
   </dipole>
   <energy>
    <i name="e_fr_energy">   -401.10952692 </i>
    <i name="e_wo_entrp">   -401.10952692 </i>
    <i name="e_0_energy">   -401.10952692 </i>
   </energy>
  </scstep>
  <scstep>
   <time name="dav">   49.41   49.53</time>
   <time name="total">   60.25   60.41</time>
   <dipole>
    <v name="dipole">      0.00000000       0.00000000      -0.18098793 </v>
    <i name="Tr[quadrupol]"> -27515.78339314 </i>
    <i name="Echarged">      0.00000000 </i>
    <i name="Edipol_quadrupol">      0.00000000 </i>
    <i name="Eion">      0.00000000 </i>
   </dipole>
   <energy>
    <i name="e_fr_energy">   -401.10952425 </i>
    <i name="e_wo_entrp">   -401.10952425 </i>
    <i name="e_0_energy">   -401.10952425 </i>
   </energy>
  </scstep>
  <scstep>
   <time name="dav">   58.13   58.27</time>
   <time name="total">   69.02   69.22</time>
   <dipole>
    <v name="dipole">      0.00000000       0.00000000      -0.18140295 </v>
    <i name="Tr[quadrupol]"> -27515.51731287 </i>
    <i name="Echarged">      0.00000000 </i>
    <i name="Edipol_quadrupol">      0.00000000 </i>
    <i name="Eion">      0.00000000 </i>
   </dipole>
   <energy>
    <i name="e_fr_energy">   -401.10950046 </i>
    <i name="e_wo_entrp">   -401.10950046 </i>
    <i name="e_0_energy">   -401.10950046 </i>
   </energy>
  </scstep>
  <scstep>
   <time name="dav">   62.38   62.55</time>
   <time name="total">   73.16   73.39</time>
   <dipole>
    <v name="dipole">      0.00000000       0.00000000      -0.18251298 </v>
    <i name="Tr[quadrupol]"> -27515.37008176 </i>
    <i name="Echarged">      0.00000000 </i>
    <i name="Edipol_quadrupol">      0.00000000 </i>
    <i name="Eion">      0.00000000 </i>
   </dipole>
   <energy>
    <i name="e_fr_energy">   -401.10946010 </i>
    <i name="e_wo_entrp">   -401.10946010 </i>
    <i name="e_0_energy">   -401.10946010 </i>
   </energy>
  </scstep>
  <scstep>
   <time name="dav">   62.16   62.31</time>
   <time name="total">   73.07   73.27</time>
   <dipole>
    <v name="dipole">      0.00000000       0.00000000      -0.18386222 </v>
    <i name="Tr[quadrupol]"> -27515.29438658 </i>
    <i name="Echarged">      0.00000000 </i>
    <i name="Edipol_quadrupol">      0.00000000 </i>
    <i name="Eion">      0.00000000 </i>
   </dipole>
   <energy>
    <i name="e_fr_energy">   -401.10941854 </i>
    <i name="e_wo_entrp">   -401.10941854 </i>
    <i name="e_0_energy">   -401.10941854 </i>
   </energy>
  </scstep>
  <scstep>
   <time name="dav">   61.62   61.76</time>
   <time name="total">   72.73   72.92</time>
   <dipole>
    <v name="dipole">      0.00000000       0.00000000      -0.18472693 </v>
    <i name="Tr[quadrupol]"> -27515.26900811 </i>
    <i name="Echarged">      0.00000000 </i>
    <i name="Edipol_quadrupol">      0.00000000 </i>
    <i name="Eion">      0.00000000 </i>
   </dipole>
   <energy>
    <i name="e_fr_energy">   -401.10939680 </i>
    <i name="e_wo_entrp">   -401.10939680 </i>
    <i name="e_0_energy">   -401.10939680 </i>
   </energy>
  </scstep>
  <scstep>
   <time name="dav">   63.29   63.44</time>
   <time name="total">   74.14   74.34</time>
   <dipole>
    <v name="dipole">      0.00000000       0.00000000      -0.18538870 </v>
    <i name="Tr[quadrupol]"> -27515.26845676 </i>
    <i name="Echarged">      0.00000000 </i>
    <i name="Edipol_quadrupol">      0.00000000 </i>
    <i name="Eion">      0.00000000 </i>
   </dipole>
   <energy>
    <i name="e_fr_energy">   -401.10938350 </i>
    <i name="e_wo_entrp">   -401.10938350 </i>
    <i name="e_0_energy">   -401.10938350 </i>
   </energy>
  </scstep>
  <scstep>
   <time name="dav">   61.26   61.39</time>
   <time name="total">   72.33   72.51</time>
   <dipole>
    <v name="dipole">      0.00000000       0.00000000      -0.18568996 </v>
    <i name="Tr[quadrupol]"> -27515.26810856 </i>
    <i name="Echarged">      0.00000000 </i>
    <i name="Edipol_quadrupol">      0.00000000 </i>
    <i name="Eion">      0.00000000 </i>
   </dipole>
   <energy>
    <i name="e_fr_energy">   -401.10937763 </i>
    <i name="e_wo_entrp">   -401.10937763 </i>
    <i name="e_0_energy">   -401.10937763 </i>
   </energy>
  </scstep>
  <scstep>
   <time name="dav">   49.65   49.76</time>
   <time name="total">   60.51   60.67</time>
   <dipole>
    <v name="dipole">      0.00000000       0.00000000      -0.18598604 </v>
    <i name="Tr[quadrupol]"> -27515.26765010 </i>
    <i name="Echarged">      0.00000000 </i>
    <i name="Edipol_quadrupol">      0.00000000 </i>
    <i name="Eion">      0.00000000 </i>
   </dipole>
   <energy>
    <i name="e_fr_energy">   -401.10937225 </i>
    <i name="e_wo_entrp">   -401.10937225 </i>
    <i name="e_0_energy">   -401.10937225 </i>
   </energy>
  </scstep>
  <scstep>
   <time name="dav">   61.45   61.60</time>
   <time name="total">   72.30   72.49</time>
   <dipole>
    <v name="dipole">      0.00000000       0.00000000      -0.18759275 </v>
    <i name="Tr[quadrupol]"> -27515.28992657 </i>
    <i name="Echarged">      0.00000000 </i>
    <i name="Edipol_quadrupol">      0.00000000 </i>
    <i name="Eion">      0.00000000 </i>
   </dipole>
   <energy>
    <i name="e_fr_energy">   -401.10934042 </i>
    <i name="e_wo_entrp">   -401.10934042 </i>
    <i name="e_0_energy">   -401.10934042 </i>
   </energy>
  </scstep>
  <scstep>
   <time name="dav">   64.11   65.00</time>
   <time name="total">   75.03   77.00</time>
   <dipole>
    <v name="dipole">      0.00000000       0.00000000      -0.18925312 </v>
    <i name="Tr[quadrupol]"> -27515.31344676 </i>
    <i name="Echarged">      0.00000000 </i>
    <i name="Edipol_quadrupol">      0.00000000 </i>
    <i name="Eion">      0.00000000 </i>
   </dipole>
   <energy>
    <i name="e_fr_energy">   -401.10931280 </i>
    <i name="e_wo_entrp">   -401.10931280 </i>
    <i name="e_0_energy">   -401.10931280 </i>
   </energy>
  </scstep>
  <scstep>
   <time name="dav">   61.30   61.63</time>
   <time name="total">   72.16   73.13</time>
   <dipole>
    <v name="dipole">      0.00000000       0.00000000      -0.19097143 </v>
    <i name="Tr[quadrupol]"> -27515.33696015 </i>
    <i name="Echarged">      0.00000000 </i>
    <i name="Edipol_quadrupol">      0.00000000 </i>
    <i name="Eion">      0.00000000 </i>
   </dipole>
   <energy>
    <i name="e_fr_energy">   -401.10928720 </i>
    <i name="e_wo_entrp">   -401.10928720 </i>
    <i name="e_0_energy">   -401.10928720 </i>
   </energy>
  </scstep>
  <scstep>
   <time name="dav">   65.11   65.19</time>
   <time name="total">   75.80   75.91</time>
   <dipole>
    <v name="dipole">      0.00000000       0.00000000      -0.19439105 </v>
    <i name="Tr[quadrupol]"> -27515.38429396 </i>
    <i name="Echarged">      0.00000000 </i>
    <i name="Edipol_quadrupol">      0.00000000 </i>
    <i name="Eion">      0.00000000 </i>
   </dipole>
   <energy>
    <i name="e_fr_energy">   -401.10924912 </i>
    <i name="e_wo_entrp">   -401.10924912 </i>
    <i name="e_0_energy">   -401.10924912 </i>
   </energy>
  </scstep>
  <scstep>
   <time name="dav">   65.96   66.12</time>
   <time name="total">   77.03   77.26</time>
   <dipole>
    <v name="dipole">      0.00000000       0.00000000      -0.19724946 </v>
    <i name="Tr[quadrupol]"> -27515.40700847 </i>
    <i name="Echarged">      0.00000000 </i>
    <i name="Edipol_quadrupol">      0.00000000 </i>
    <i name="Eion">      0.00000000 </i>
   </dipole>
   <energy>
    <i name="e_fr_energy">   -401.10923401 </i>
    <i name="e_wo_entrp">   -401.10923401 </i>
    <i name="e_0_energy">   -401.10923401 </i>
   </energy>
  </scstep>
  <scstep>
   <time name="dav">   64.07   64.18</time>
   <time name="total">   74.90   75.08</time>
   <dipole>
    <v name="dipole">      0.00000000       0.00000000      -0.19827449 </v>
    <i name="Tr[quadrupol]"> -27515.40555075 </i>
    <i name="Echarged">      0.00000000 </i>
    <i name="Edipol_quadrupol">      0.00000000 </i>
    <i name="Eion">      0.00000000 </i>
   </dipole>
   <energy>
    <i name="e_fr_energy">   -401.10923309 </i>
    <i name="e_wo_entrp">   -401.10923309 </i>
    <i name="e_0_energy">   -401.10923309 </i>
   </energy>
  </scstep>
  <scstep>
   <time name="dav">   64.74   64.91</time>
   <time name="total">   75.50   75.73</time>
   <dipole>
    <v name="dipole">      0.00000000       0.00000000      -0.19880278 </v>
    <i name="Tr[quadrupol]"> -27515.40477339 </i>
    <i name="Echarged">      0.00000000 </i>
    <i name="Edipol_quadrupol">      0.00000000 </i>
    <i name="Eion">      0.00000000 </i>
   </dipole>
   <energy>
    <i name="e_fr_energy">   -401.10923133 </i>
    <i name="e_wo_entrp">   -401.10923133 </i>
    <i name="e_0_energy">   -401.10923133 </i>
   </energy>
  </scstep>
  <scstep>
   <time name="dav">   58.39   58.52</time>
   <time name="total">   69.35   69.53</time>
   <dipole>
    <v name="dipole">      0.00000000       0.00000000      -0.19877908 </v>
    <i name="Tr[quadrupol]"> -27515.40473178 </i>
    <i name="Echarged">      0.00000000 </i>
    <i name="Edipol_quadrupol">      0.00000000 </i>
    <i name="Eion">      0.00000000 </i>
   </dipole>
   <energy>
    <i name="e_fr_energy">   -401.10923146 </i>
    <i name="e_wo_entrp">   -401.10923146 </i>
    <i name="e_0_energy">   -401.10923146 </i>
   </energy>
  </scstep>
  <scstep>
   <time name="dav">   49.10   49.22</time>
   <time name="total">   56.67   56.83</time>
   <dipole>
    <v name="dipole">      0.00000000       0.00000000      -0.19882259 </v>
    <i name="Tr[quadrupol]"> -27515.40463526 </i>
    <i name="Echarged">      0.00000000 </i>
    <i name="Edipol_quadrupol">      0.00000000 </i>
    <i name="Eion">      0.00000000 </i>
   </dipole>
   <energy>
    <i name="alphaZ">    720.88536405 </i>
    <i name="ewald"> 144543.02691811 </i>
    <i name="hartreedc">-198017.76897051 </i>
    <i name="XCdc">   2278.99426407 </i>
    <i name="pawpsdc">  75430.97208492 </i>
    <i name="pawaedc"> -74845.65989787 </i>
    <i name="eentropy">     -0.00000000 </i>
    <i name="bandstr"> -11789.05341194 </i>
    <i name="atom">  61277.49441763 </i>
    <i name="e_fr_energy">   -401.10923153 </i>
    <i name="e_wo_entrp">   -401.10923153 </i>
    <i name="e_0_energy">   -401.10923153 </i>
   </energy>
  </scstep>
  <structure>
   <crystal>
    <varray name="basis" >
     <v>      15.62500000       0.00000000       0.00000000 </v>
     <v>      -7.81250000      13.53164693       0.00000000 </v>
     <v>       0.00000000       0.00000000      20.00000000 </v>
    </varray>
    <i name="volume">   4228.63966688 </i>
    <varray name="rec_basis" >
     <v>       0.06400000       0.03695042       0.00000000 </v>
     <v>       0.00000000       0.07390083       0.00000000 </v>
     <v>       0.00000000       0.00000000       0.05000000 </v>
    </varray>
   </crystal>
   <varray name="positions" >
    <v>       0.06664310       0.13341102       0.18598534 </v>
    <v>       0.26676792       0.13341102       0.18598534 </v>
    <v>       0.46665693       0.13332062       0.18598055 </v>
    <v>       0.66666666       0.13333332       0.18598822 </v>
    <v>       0.86666368       0.13332062       0.18598055 </v>
    <v>       0.06669789       0.33334893       0.18604429 </v>
    <v>       0.26633918       0.33267835       0.18611857 </v>
    <v>       0.46665105       0.33334893       0.18604429 </v>
    <v>       0.66667936       0.33334305       0.18598055 </v>
    <v>       0.86666368       0.33334305       0.18598055 </v>
    <v>       0.06664310       0.53323206       0.18598534 </v>
    <v>       0.26633918       0.53366080       0.18611857 </v>
    <v>       0.46732163       0.53366080       0.18611857 </v>
    <v>       0.66658896       0.53323206       0.18598534 </v>
    <v>       0.86667963       0.53335926       0.18597705 </v>
    <v>       0.06666390       0.73333608       0.18597842 </v>
    <v>       0.26676792       0.73335688       0.18598534 </v>
    <v>       0.46665105       0.73330209       0.18604429 </v>
    <v>       0.66658896       0.73335688       0.18598534 </v>
    <v>       0.86667218       0.73333608       0.18597842 </v>
    <v>       0.06666390       0.93332779       0.18597842 </v>
    <v>       0.26664072       0.93332035       0.18597705 </v>
    <v>       0.46665693       0.93333629       0.18598055 </v>
    <v>       0.66667936       0.93333629       0.18598055 </v>
    <v>       0.86667963       0.93332035       0.18597705 </v>
    <v>       0.13334339       0.06668676       0.10687518 </v>
    <v>       0.33333683       0.06667181       0.10690262 </v>
    <v>       0.53333459       0.06666729       0.10689076 </v>
    <v>       0.73333271       0.06666729       0.10689076 </v>
    <v>       0.93333499       0.06667181       0.10690262 </v>
    <v>       0.13326508       0.26664695       0.10685809 </v>
    <v>       0.33338189       0.26664695       0.10685809 </v>
    <v>       0.53332999       0.26667001       0.10688108 </v>
    <v>       0.73333271       0.26666540       0.10689076 </v>
    <v>       0.93334004       0.26667001       0.10688108 </v>
    <v>       0.13326508       0.46661811       0.10685809 </v>
    <v>       0.33333334       0.46666666       0.10699272 </v>
    <v>       0.53335304       0.46661811       0.10685809 </v>
    <v>       0.73332819       0.46666317       0.10690262 </v>
    <v>       0.93333499       0.46666317       0.10690262 </v>
    <v>       0.13334339       0.66665661       0.10687518 </v>
    <v>       0.33338189       0.66673492       0.10685809 </v>
    <v>       0.53335304       0.66673492       0.10685809 </v>
    <v>       0.73331324       0.66665661       0.10687518 </v>
    <v>       0.93333171       0.66666341       0.10689413 </v>
    <v>       0.13333659       0.86666828       0.10689413 </v>
    <v>       0.33333683       0.86666500       0.10690262 </v>
    <v>       0.53332999       0.86665996       0.10688108 </v>
    <v>       0.73332819       0.86666500       0.10690262 </v>
    <v>       0.93333171       0.86666828       0.10689413 </v>
    <v>       0.13333943       0.06667884       0.26511591 </v>
    <v>       0.33334497       0.06666217       0.26508323 </v>
    <v>       0.53333700       0.06666849       0.26509006 </v>
    <v>       0.73333151       0.06666849       0.26509006 </v>
    <v>       0.93331721       0.06666217       0.26508323 </v>
    <v>       0.13343635       0.26671701       0.26511314 </v>
    <v>       0.33328067       0.26671701       0.26511314 </v>
    <v>       0.53332500       0.26667500       0.26511025 </v>
    <v>       0.73333151       0.26666300       0.26509006 </v>
    <v>       0.93335002       0.26667500       0.26511025 </v>
    <v>       0.13343635       0.46671932       0.26511314 </v>
    <v>       0.33333334       0.46666666       0.26959512 </v>
    <v>       0.53328299       0.46671932       0.26511314 </v>
    <v>       0.73333783       0.46665502       0.26508323 </v>
    <v>       0.93331721       0.46665502       0.26508323 </v>
    <v>       0.13333943       0.66666057       0.26511591 </v>
    <v>       0.33328067       0.66656364       0.26511314 </v>
    <v>       0.53328299       0.66656364       0.26511314 </v>
    <v>       0.73332115       0.66666057       0.26511591 </v>
    <v>       0.93333051       0.66666101       0.26508684 </v>
    <v>       0.13333898       0.86666948       0.26508684 </v>
    <v>       0.33334497       0.86668279       0.26508323 </v>
    <v>       0.53332500       0.86664998       0.26511025 </v>
    <v>       0.73333783       0.86668279       0.26508323 </v>
    <v>       0.93333051       0.86666948       0.26508684 </v>
    <v>       0.33333334       0.46666666       0.37483234 </v>
   </varray>
  </structure>
  <varray name="forces" >
   <v>      -0.00930747      -0.00571762       0.00889090 </v>
   <v>       0.00930747      -0.00571762       0.00889090 </v>
   <v>       0.00484769       0.00131745       0.00519039 </v>
   <v>       0.00000000      -0.00000000       0.00360372 </v>
   <v>      -0.00484769       0.00131745       0.00519039 </v>
   <v>       0.02247611       0.01297659       0.02365169 </v>
   <v>      -0.00000000       0.24092439       0.33163500 </v>
   <v>      -0.02247611       0.01297659       0.02365169 </v>
   <v>       0.00128290      -0.00485695       0.00519039 </v>
   <v>      -0.00128290      -0.00485695       0.00519039 </v>
   <v>      -0.00960534      -0.00520170       0.00889090 </v>
   <v>       0.20864664      -0.12046219       0.33163500 </v>
   <v>      -0.20864664      -0.12046219       0.33163500 </v>
   <v>       0.00960534      -0.00520170       0.00889090 </v>
   <v>       0.00000000      -0.00019046       0.00571672 </v>
   <v>       0.00563054      -0.00325079       0.00728100 </v>
   <v>      -0.00029787       0.01091931       0.00889090 </v>
   <v>      -0.00000000      -0.02595318       0.02365169 </v>
   <v>       0.00029787       0.01091931       0.00889090 </v>
   <v>      -0.00563054      -0.00325079       0.00728100 </v>
   <v>      -0.00000000       0.00650158       0.00728100 </v>
   <v>       0.00016494       0.00009523       0.00571672 </v>
   <v>       0.00356479       0.00353950       0.00519039 </v>
   <v>      -0.00356479       0.00353950       0.00519039 </v>
   <v>      -0.00016494       0.00009523       0.00571672 </v>
   <v>       0.00000000       0.01520733       0.00575692 </v>
   <v>       0.00068659       0.00144538       0.00065192 </v>
   <v>       0.00005994       0.00003461      -0.00070735 </v>
   <v>      -0.00005994       0.00003461      -0.00070735 </v>
   <v>      -0.00068659       0.00144538       0.00065192 </v>
   <v>      -0.00661951      -0.00628138      -0.00488344 </v>
   <v>       0.00661951      -0.00628138      -0.00488344 </v>
   <v>      -0.00709194       0.00409453       0.00453616 </v>
   <v>       0.00000000      -0.00006921      -0.00070735 </v>
   <v>       0.00709194       0.00409453       0.00453616 </v>
   <v>      -0.00874959      -0.00259197      -0.00488344 </v>
   <v>       0.00000000      -0.00000000       0.29622764 </v>
   <v>       0.00874959      -0.00259197      -0.00488344 </v>
   <v>      -0.00090844      -0.00131729       0.00065192 </v>
   <v>       0.00090844      -0.00131729       0.00065192 </v>
   <v>       0.01316993      -0.00760366       0.00575692 </v>
   <v>      -0.00213008       0.00887335      -0.00488344 </v>
   <v>       0.00213008       0.00887335      -0.00488344 </v>
   <v>      -0.01316993      -0.00760366       0.00575692 </v>
   <v>       0.00000000       0.00147463      -0.00335278 </v>
   <v>      -0.00127707      -0.00073731      -0.00335278 </v>
   <v>       0.00159503      -0.00012809       0.00065192 </v>
   <v>      -0.00000000      -0.00818906       0.00453616 </v>
   <v>      -0.00159503      -0.00012809       0.00065192 </v>
   <v>       0.00127707      -0.00073731      -0.00335278 </v>
   <v>       0.00000000       0.00723961      -0.00426105 </v>
   <v>       0.00349187      -0.00118379      -0.00389742 </v>
   <v>       0.00021567       0.00012452      -0.00158082 </v>
   <v>      -0.00021567       0.00012452      -0.00158082 </v>
   <v>      -0.00349187      -0.00118379      -0.00389742 </v>
   <v>      -0.01376463      -0.04345747       0.00728179 </v>
   <v>       0.01376463      -0.04345747       0.00728179 </v>
   <v>      -0.00021405       0.00012358       0.00622475 </v>
[...]
       <r>   -64.7706     0.0000     0.0000 </r>
       <r>   -64.5261     0.0000     0.0000 </r>
       <r>   -64.2817     0.0000     0.0000 </r>
       <r>   -64.0372     0.0000     0.0000 </r>
       <r>   -63.7927     0.0000     0.0000 </r>
       <r>   -63.5483     0.0000     0.0000 </r>
       <r>   -63.3038     0.0000     0.0000 </r>
       <r>   -63.0593     0.0000     0.0000 </r>
       <r>   -62.8149     0.0000     0.0000 </r>
       <r>   -62.5704    92.2588    22.5542 </r>
       <r>   -62.3259    10.0045    25.0000 </r>
       <r>   -62.0815     0.0000    25.0000 </r>
       <r>   -61.8370     0.0000    25.0000 </r>
       <r>   -61.5925     0.0000    25.0000 </r>
       <r>   -61.3481     0.0000    25.0000 </r>
       <r>   -61.1036     0.0000    25.0000 </r>
       <r>   -60.8591     0.0000    25.0000 </r>
       <r>   -60.6147     0.0000    25.0000 </r>
       <r>   -60.3702     0.0000    25.0000 </r>
       <r>   -60.1257     0.0000    25.0000 </r>
       <r>   -59.8813     0.0000    25.0000 </r>
       <r>   -59.6368     0.0000    25.0000 </r>
       <r>   -59.3923     0.0000    25.0000 </r>
       <r>   -59.1479     0.0000    25.0000 </r>
       <r>   -58.9034     0.0000    25.0000 </r>
       <r>   -58.6589     0.0000    25.0000 </r>
       <r>   -58.4145     0.0000    25.0000 </r>
       <r>   -58.1700     0.0000    25.0000 </r>
       <r>   -57.9255     0.0000    25.0000 </r>
       <r>   -57.6811     0.0000    25.0000 </r>
       <r>   -57.4366     0.0000    25.0000 </r>
       <r>   -57.1921     0.0000    25.0000 </r>
       <r>   -56.9477     0.0000    25.0000 </r>
       <r>   -56.7032     0.0000    25.0000 </r>
       <r>   -56.4587     0.0000    25.0000 </r>
       <r>   -56.2143     0.0000    25.0000 </r>
       <r>   -55.9698     0.0000    25.0000 </r>
       <r>   -55.7253     0.0000    25.0000 </r>
       <r>   -55.4809     0.0000    25.0000 </r>
       <r>   -55.2364     0.0000    25.0000 </r>
       <r>   -54.9919     0.0000    25.0000 </r>
       <r>   -54.7475     0.0000    25.0000 </r>
       <r>   -54.5030     0.0000    25.0000 </r>
       <r>   -54.2585     0.0000    25.0000 </r>
       <r>   -54.0141     0.0000    25.0000 </r>
       <r>   -53.7696     0.0000    25.0000 </r>
       <r>   -53.5251     0.0000    25.0000 </r>
       <r>   -53.2807     0.0000    25.0000 </r>
       <r>   -53.0362     0.0000    25.0000 </r>
       <r>   -52.7917     0.0000    25.0000 </r>
       <r>   -52.5473     0.0000    25.0000 </r>
       <r>   -52.3028     0.0000    25.0000 </r>
       <r>   -52.0583     0.0000    25.0000 </r>
       <r>   -51.8139     0.0000    25.0000 </r>
       <r>   -51.5694     0.0000    25.0000 </r>
       <r>   -51.3249     0.0000    25.0000 </r>
       <r>   -51.0805     0.0000    25.0000 </r>
       <r>   -50.8360     0.0000    25.0000 </r>
       <r>   -50.5915     0.0000    25.0000 </r>
       <r>   -50.3471     0.0000    25.0000 </r>
       <r>   -50.1026     0.0000    25.0000 </r>
       <r>   -49.8581     0.0000    25.0000 </r>
       <r>   -49.6137     0.0000    25.0000 </r>
       <r>   -49.3692     0.0000    25.0000 </r>
       <r>   -49.1247     0.0000    25.0000 </r>
       <r>   -48.8803     0.0000    25.0000 </r>
       <r>   -48.6358     0.0000    25.0000 </r>
       <r>   -48.3913     0.0000    25.0000 </r>
       <r>   -48.1469     0.0000    25.0000 </r>
       <r>   -47.9024     0.0000    25.0000 </r>
       <r>   -47.6579     0.0000    25.0000 </r>
       <r>   -47.4135     0.0000    25.0000 </r>
       <r>   -47.1690     0.0000    25.0000 </r>
       <r>   -46.9245     0.0000    25.0000 </r>
       <r>   -46.6801     0.0000    25.0000 </r>
       <r>   -46.4356     0.0000    25.0000 </r>
       <r>   -46.1911     0.0000    25.0000 </r>
       <r>   -45.9467     0.0000    25.0000 </r>
       <r>   -45.7022     0.0000    25.0000 </r>
       <r>   -45.4577     0.0000    25.0000 </r>
       <r>   -45.2133     0.0000    25.0000 </r>
       <r>   -44.9688     0.0000    25.0000 </r>
       <r>   -44.7243     0.0000    25.0000 </r>
       <r>   -44.4799     0.0000    25.0000 </r>
       <r>   -44.2354     0.0000    25.0000 </r>
       <r>   -43.9909     0.0000    25.0000 </r>
       <r>   -43.7465     0.0000    25.0000 </r>
       <r>   -43.5020     0.0000    25.0000 </r>
       <r>   -43.2575     0.0000    25.0000 </r>
       <r>   -43.0131     0.0000    25.0000 </r>
       <r>   -42.7686     0.0000    25.0000 </r>
       <r>   -42.5241     0.0000    25.0000 </r>
       <r>   -42.2797     0.0000    25.0000 </r>
       <r>   -42.0352     0.0000    25.0000 </r>
       <r>   -41.7907     0.0000    25.0000 </r>
       <r>   -41.5462     0.0000    25.0000 </r>
       <r>   -41.3018     0.0000    25.0000 </r>
       <r>   -41.0573     0.0000    25.0000 </r>
       <r>   -40.8128     0.0000    25.0000 </r>
       <r>   -40.5684     0.0000    25.0000 </r>
       <r>   -40.3239     0.0000    25.0000 </r>
       <r>   -40.0794     0.0000    25.0000 </r>
       <r>   -39.8350     0.0000    25.0000 </r>
       <r>   -39.5905     0.0000    25.0000 </r>
       <r>   -39.3460     0.0000    25.0000 </r>
       <r>   -39.1016     0.0000    25.0000 </r>
       <r>   -38.8571     0.0000    25.0000 </r>
       <r>   -38.6126     0.0000    25.0000 </r>
       <r>   -38.3682     0.0000    25.0000 </r>
       <r>   -38.1237     0.0000    25.0000 </r>
       <r>   -37.8792     0.0000    25.0000 </r>
       <r>   -37.6348     0.0000    25.0000 </r>
       <r>   -37.3903     0.0000    25.0000 </r>
       <r>   -37.1458     0.0013    25.0003 </r>
       <r>   -36.9014    59.6267    39.5771 </r>
       <r>   -36.6569   205.5928    89.8377 </r>
       <r>   -36.4124    41.5691   100.0000 </r>
       <r>   -36.1680     0.0000   100.0000 </r>
       <r>   -35.9235     0.0000   100.0000 </r>
       <r>   -35.6790     0.0000   100.0000 </r>
       <r>   -35.4346     0.0000   100.0000 </r>
       <r>   -35.1901     0.0000   100.0000 </r>
       <r>   -34.9456     0.0000   100.0000 </r>
       <r>   -34.7012     0.0000   100.0000 </r>
       <r>   -34.4567     0.0000   100.0000 </r>
       <r>   -34.2122     0.0000   100.0000 </r>
       <r>   -33.9678     0.0000   100.0000 </r>
       <r>   -33.7233     0.0000   100.0000 </r>
       <r>   -33.4788     0.0000   100.0000 </r>
       <r>   -33.2344     0.0000   100.0000 </r>
       <r>   -32.9899     0.0000   100.0000 </r>
       <r>   -32.7454     0.0000   100.0000 </r>
       <r>   -32.5010     0.0000   100.0000 </r>
       <r>   -32.2565     0.0000   100.0000 </r>
       <r>   -32.0120     0.0000   100.0000 </r>
       <r>   -31.7676     0.0000   100.0000 </r>
       <r>   -31.5231     0.0000   100.0000 </r>
       <r>   -31.2786     0.0000   100.0000 </r>
       <r>   -31.0342     0.0000   100.0000 </r>
       <r>   -30.7897     0.0000   100.0000 </r>
       <r>   -30.5452     0.0000   100.0000 </r>
       <r>   -30.3008     0.0000   100.0000 </r>
       <r>   -30.0563     0.0000   100.0000 </r>
       <r>   -29.8118     0.0000   100.0000 </r>
       <r>   -29.5674     0.0000   100.0000 </r>
       <r>   -29.3229     0.0000   100.0000 </r>
       <r>   -29.0784     0.0000   100.0000 </r>
       <r>   -28.8340     0.0000   100.0000 </r>
       <r>   -28.5895     0.0000   100.0000 </r>
       <r>   -28.3450     0.0000   100.0000 </r>
       <r>   -28.1006     0.0000   100.0000 </r>
       <r>   -27.8561     0.0000   100.0000 </r>
       <r>   -27.6116     0.0000   100.0000 </r>
       <r>   -27.3672     0.0000   100.0000 </r>
       <r>   -27.1227     0.0000   100.0000 </r>
       <r>   -26.8782     0.0000   100.0000 </r>
       <r>   -26.6338     0.0000   100.0000 </r>
       <r>   -26.3893     0.0000   100.0000 </r>
       <r>   -26.1448     0.0000   100.0000 </r>
       <r>   -25.9004     0.0000   100.0000 </r>
       <r>   -25.6559     0.0000   100.0000 </r>
       <r>   -25.4114     0.0000   100.0000 </r>
       <r>   -25.1670     0.0000   100.0000 </r>
       <r>   -24.9225     0.0000   100.0000 </r>
       <r>   -24.6780     0.0000   100.0000 </r>
       <r>   -24.4336     0.0000   100.0000 </r>
       <r>   -24.1891     0.0000   100.0000 </r>
       <r>   -23.9446     0.0000   100.0000 </r>
       <r>   -23.7002     0.0000   100.0000 </r>
       <r>   -23.4557     0.0000   100.0000 </r>
       <r>   -23.2112     0.0000   100.0000 </r>
       <r>   -22.9668     0.0000   100.0000 </r>
       <r>   -22.7223     0.0000   100.0000 </r>
       <r>   -22.4778     0.0000   100.0000 </r>
       <r>   -22.2334     0.0000   100.0000 </r>
       <r>   -21.9889     0.0000   100.0000 </r>
       <r>   -21.7444     0.0000   100.0000 </r>
       <r>   -21.5000     0.0000   100.0000 </r>
       <r>   -21.2555     0.0000   100.0000 </r>
       <r>   -21.0110     0.0000   100.0000 </r>
       <r>   -20.7666     0.0000   100.0000 </r>
       <r>   -20.5221     0.0000   100.0000 </r>
       <r>   -20.2776     0.0000   100.0000 </r>
       <r>   -20.0332     0.0000   100.0000 </r>
       <r>   -19.7887     0.0000   100.0000 </r>
       <r>   -19.5442     0.0000   100.0000 </r>
       <r>   -19.2998     0.0000   100.0000 </r>
       <r>   -19.0553     0.0000   100.0000 </r>
       <r>   -18.8108     0.0000   100.0000 </r>
       <r>   -18.5664     0.0000   100.0000 </r>
       <r>   -18.3219     0.0000   100.0000 </r>
       <r>   -18.0774     0.0000   100.0000 </r>
       <r>   -17.8330     0.0000   100.0000 </r>
       <r>   -17.5885     0.0000   100.0000 </r>
       <r>   -17.3440     0.0000   100.0000 </r>
       <r>   -17.0996     0.0000   100.0000 </r>
       <r>   -16.8551     0.0000   100.0000 </r>
       <r>   -16.6106     0.0000   100.0000 </r>
       <r>   -16.3662     0.0000   100.0000 </r>
       <r>   -16.1217     0.6097   100.1491 </r>
       <r>   -15.8772     5.3048   101.4459 </r>
       <r>   -15.6328     6.4602   103.0252 </r>
       <r>   -15.3883     6.5247   104.6203 </r>
       <r>   -15.1438     7.7235   106.5084 </r>
       <r>   -14.8994     7.6037   108.3673 </r>
       <r>   -14.6549    16.4232   112.3822 </r>
       <r>   -14.4104    28.6603   119.3887 </r>
       <r>   -14.1660    32.1424   127.2465 </r>
       <r>   -13.9215    60.4715   142.0298 </r>
       <r>   -13.6770    32.5383   149.9843 </r>
       <r>   -13.4326     0.0642   150.0000 </r>
       <r>   -13.1881     0.0000   150.0000 </r>
       <r>   -12.9436     0.0000   150.0000 </r>
       <r>   -12.6992     0.0000   150.0000 </r>
       <r>   -12.4547     0.0000   150.0000 </r>
       <r>   -12.2102     0.0000   150.0000 </r>
       <r>   -11.9658     0.0000   150.0000 </r>
       <r>   -11.7213     0.0000   150.0000 </r>
       <r>   -11.4768     0.0000   150.0000 </r>
       <r>   -11.2324     0.0000   150.0000 </r>
       <r>   -10.9879     0.0000   150.0000 </r>
       <r>   -10.7434     0.0000   150.0000 </r>
       <r>   -10.4990     0.0000   150.0000 </r>
       <r>   -10.2545     0.0000   150.0000 </r>
       <r>   -10.0100     0.0000   150.0000 </r>
       <r>    -9.7656     0.0000   150.0000 </r>
       <r>    -9.5211     0.0000   150.0000 </r>
       <r>    -9.2766     0.0000   150.0000 </r>
       <r>    -9.0321     0.0000   150.0000 </r>
       <r>    -8.7877     0.0000   150.0000 </r>
       <r>    -8.5432     0.0000   150.0000 </r>
       <r>    -8.2987     0.0000   150.0000 </r>
       <r>    -8.0543     2.2581   150.5520 </r>
       <r>    -7.8098     2.5239   151.1690 </r>
       <r>    -7.5653    12.0849   154.1234 </r>
       <r>    -7.3209    24.2811   160.0593 </r>
       <r>    -7.0764    38.1127   169.3766 </r>
       <r>    -6.8319    47.6138   181.0166 </r>
       <r>    -6.5875    22.6759   186.5601 </r>
       <r>    -6.3430     9.4826   188.8783 </r>
       <r>    -6.0985    10.8959   191.5420 </r>
       <r>    -5.8541    24.7005   197.5805 </r>
       <r>    -5.6096    56.7617   211.4568 </r>
       <r>    -5.3651    23.1363   217.1129 </r>
       <r>    -5.1207    42.2645   227.4452 </r>
       <r>    -4.8762    48.4024   239.2779 </r>
       <r>    -4.6317    20.6232   244.3196 </r>
       <r>    -4.3873    25.1615   250.4708 </r>
       <r>    -4.1428    13.5242   253.7770 </r>
       <r>    -3.8983    35.1881   262.3793 </r>
       <r>    -3.6539    54.3690   275.6708 </r>
       <r>    -3.4094    29.4549   282.8715 </r>
       <r>    -3.1649    29.9123   290.1841 </r>
       <r>    -2.9205    30.9721   297.7557 </r>
       <r>    -2.6760    34.5359   306.1986 </r>
       <r>    -2.4315    35.8845   314.9712 </r>
       <r>    -2.1871    29.8651   322.2722 </r>
       <r>    -1.9426    17.4592   326.5404 </r>
       <r>    -1.6981     4.3273   327.5983 </r>
       <r>    -1.4537     9.7931   329.9924 </r>
       <r>    -1.2092     0.0311   330.0000 </r>
       <r>    -0.9647     0.0000   330.0000 </r>
       <r>    -0.7203     0.0000   330.0000 </r>
       <r>    -0.4758     0.0003   330.0001 </r>
       <r>    -0.2313     4.0829   330.9982 </r>
       <r>     0.0131     3.7934   331.9256 </r>
       <r>     0.2576    33.7865   340.1852 </r>
       <r>     0.5021    46.1120   351.4581 </r>
       <r>     0.7465    53.7731   364.6039 </r>
       <r>     0.9910    56.8238   378.4954 </r>
       <r>     1.2355    45.1651   389.5368 </r>
       <r>     1.4799    36.0482   398.3494 </r>
       <r>     1.7244    22.8043   403.9243 </r>
       <r>     1.9689    17.6127   408.2300 </r>
       <r>     2.2133    18.5751   412.7710 </r>
       <r>     2.4578    30.0959   420.1284 </r>
       <r>     2.7023    22.8370   425.7113 </r>
       <r>     2.9467    14.0215   429.1391 </r>
       <r>     3.1912    12.7572   432.2578 </r>
       <r>     3.4357    11.8242   435.1485 </r>
       <r>     3.6801     7.9360   437.0886 </r>
       <r>     3.9246    10.9634   439.7687 </r>
       <r>     4.1691     0.9460   440.0000 </r>
       <r>     4.4135     0.0000   440.0000 </r>
       <r>     4.6580     0.0000   440.0000 </r>
       <r>     4.9025     0.0000   440.0000 </r>
       <r>     5.1469     0.0000   440.0000 </r>
       <r>     5.3914     0.0000   440.0000 </r>
       <r>     5.6359     0.0000   440.0000 </r>
       <r>     5.8803     0.0000   440.0000 </r>
       <r>     6.1248     0.0000   440.0000 </r>
       <r>     6.3693     0.0000   440.0000 </r>
       <r>     6.6137     0.0000   440.0000 </r>
       <r>     6.8582     0.0000   440.0000 </r>
       <r>     7.1027     0.0000   440.0000 </r>
       <r>     7.3471     0.0000   440.0000 </r>
      </set>
     </set>
    </array>
   </total>
  </dos>
 </calculation>
 <structure name="finalpos" >
  <crystal>
   <varray name="basis" >
    <v>      15.62500000       0.00000000       0.00000000 </v>
    <v>      -7.81250000      13.53164693       0.00000000 </v>
    <v>       0.00000000       0.00000000      20.00000000 </v>
   </varray>
   <i name="volume">   4228.63966688 </i>
   <varray name="rec_basis" >
    <v>       0.06400000       0.03695042       0.00000000 </v>
    <v>       0.00000000       0.07390083       0.00000000 </v>
    <v>       0.00000000       0.00000000       0.05000000 </v>
   </varray>
  </crystal>
  <varray name="positions" >
   <v>       0.06646256       0.13334890       0.18617695 </v>
   <v>       0.26688634       0.13334890       0.18617695 </v>
   <v>       0.46668338       0.13330283       0.18633275 </v>
   <v>       0.66666666       0.13333332       0.18628556 </v>
   <v>       0.86661944       0.13330283       0.18633275 </v>
   <v>       0.06677949       0.33338973       0.18630758 </v>
   <v>       0.26590835       0.33181671       0.18562647 </v>
   <v>       0.46661025       0.33338973       0.18630758 </v>
   <v>       0.66669715       0.33331659       0.18633275 </v>
   <v>       0.86661944       0.33331659       0.18633275 </v>
   <v>       0.06646256       0.53311364       0.18617695 </v>
   <v>       0.26590835       0.53409163       0.18562647 </v>
   <v>       0.46818327       0.53409163       0.18562647 </v>
   <v>       0.66665107       0.53311364       0.18617695 </v>
   <v>       0.86667183       0.53334365       0.18623791 </v>
   <v>       0.06666232       0.73333766       0.18611489 </v>
   <v>       0.26688634       0.73353742       0.18617695 </v>
   <v>       0.46661025       0.73322049       0.18630758 </v>
   <v>       0.66665107       0.73353742       0.18617695 </v>
   <v>       0.86667534       0.73333766       0.18611489 </v>
   <v>       0.06666232       0.93332464       0.18611489 </v>
   <v>       0.26665633       0.93332815       0.18623791 </v>
   <v>       0.46668338       0.93338054       0.18633275 </v>
   <v>       0.66669715       0.93338054       0.18633275 </v>
   <v>       0.86667183       0.93332815       0.18623791 </v>
   <v>       0.13340247       0.06680493       0.10712536 </v>
   <v>       0.33346696       0.06663126       0.10717923 </v>
   <v>       0.53332688       0.06666343       0.10719235 </v>
   <v>       0.73333657       0.06666343       0.10719235 </v>
   <v>       0.93316431       0.06663126       0.10717923 </v>
   <v>       0.13243932       0.26614951       0.10675843 </v>
   <v>       0.33371020       0.26614951       0.10675843 </v>
   <v>       0.53335317       0.26664682       0.10727370 </v>
   <v>       0.73333657       0.26667312       0.10719235 </v>
   <v>       0.93329366       0.26664682       0.10727370 </v>
   <v>       0.13243932       0.46628979       0.10675843 </v>
   <v>       0.33333334       0.46666666       0.10739046 </v>
   <v>       0.53385048       0.46628979       0.10675843 </v>
   <v>       0.73336874       0.46653304       0.10717923 </v>
   <v>       0.93316431       0.46653304       0.10717923 </v>
   <v>       0.13340247       0.66659753       0.10712536 </v>
   <v>       0.33371020       0.66756067       0.10675843 </v>
   <v>       0.53385048       0.66756067       0.10675843 </v>
   <v>       0.73319507       0.66659753       0.10712536 </v>
   <v>       0.93328738       0.66657475       0.10704164 </v>
   <v>       0.13342525       0.86671262       0.10704164 </v>
   <v>       0.33346696       0.86683568       0.10717923 </v>
   <v>       0.53335317       0.86670633       0.10727370 </v>
   <v>       0.73336874       0.86683568       0.10717923 </v>
   <v>       0.93328738       0.86671262       0.10704164 </v>
   <v>       0.13333544       0.06667086       0.26523138 </v>
   <v>       0.33332373       0.06662267       0.26536818 </v>
   <v>       0.53339967       0.06669983       0.26541167 </v>
   <v>       0.73330017       0.06669983       0.26541167 </v>
   <v>       0.93329895       0.06662267       0.26536818 </v>
   <v>       0.13358352       0.26663721       0.26528797 </v>
   <v>       0.33305371       0.26663721       0.26528797 </v>
   <v>       0.53327257       0.26672743       0.26543487 </v>
   <v>       0.73330017       0.26660033       0.26541167 </v>
   <v>       0.93345488       0.26672743       0.26543487 </v>
   <v>       0.13358352       0.46694628       0.26528797 </v>
   <v>       0.33333334       0.46666666       0.26301761 </v>
   <v>       0.53336278       0.46694628       0.26528797 </v>
   <v>       0.73337732       0.46667626       0.26536818 </v>
   <v>       0.93329895       0.46667626       0.26536818 </v>
   <v>       0.13333544       0.66666456       0.26523138 </v>
   <v>       0.33305371       0.66641648       0.26528797 </v>
   <v>       0.53336278       0.66641648       0.26528797 </v>
   <v>       0.73332914       0.66666456       0.26523138 </v>
   <v>       0.93337633       0.66675265       0.26523578 </v>
   <v>       0.13324735       0.86662367       0.26523578 </v>
   <v>       0.33332373       0.86670104       0.26536818 </v>
   <v>       0.53327257       0.86654512       0.26543487 </v>
   <v>       0.73337732       0.86670104       0.26536818 </v>
   <v>       0.93337633       0.86662367       0.26523578 </v>
   <v>       0.33333334       0.46666666       0.36711847 </v>
  </varray>
 </structure>
</modeling>
